
                                 *****************
                                 * O   R   C   A *
                                 *****************

           --- An Ab Initio, DFT and Semiempirical electronic structure package ---

                  #######################################################
                  #                        -***-                        #
                  #          Department of theory and spectroscopy      #
                  #               Directorship: Frank Neese             #
                  #        Max Planck Institute fuer Kohlenforschung    #
                  #                Kaiser Wilhelm Platz 1               #
                  #                 D-45470 Muelheim/Ruhr               #
                  #                      Germany                        #
                  #                                                     #
                  #                  All rights reserved                #
                  #                        -***-                        #
                  #######################################################


                         Program Version 4.2.1 -  RELEASE  -


 With contributions from (in alphabetic order):
   Daniel Aravena         : Magnetic Suceptibility
   Michael Atanasov       : Ab Initio Ligand Field Theory (pilot matlab implementation)
   Alexander A. Auer      : GIAO ZORA, VPT2
   Ute Becker             : Parallelization
   Giovanni Bistoni       : ED, misc. LED, open-shell LED, HFLD
   Martin Brehm           : Molecular dynamics
   Dmytro Bykov           : SCF Hessian
   Vijay G. Chilkuri      : MRCI spin determinant printing, contributions to CSF-ICE
   Dipayan Datta          : RHF DLPNO-CCSD density
   Achintya Kumar Dutta   : EOM-CC, STEOM-CC
   Dmitry Ganyushin       : Spin-Orbit,Spin-Spin,Magnetic field MRCI
   Miquel Garcia          : C-PCM Hessian, Gaussian charge scheme
   Yang Guo               : DLPNO-NEVPT2, CIM, IAO-localization
   Andreas Hansen         : Spin unrestricted coupled pair/coupled cluster methods
   Benjamin Helmich-Paris : CASSCF linear response (MC-RPA)
   Lee Huntington         : MR-EOM, pCC
   Robert Izsak           : Overlap fitted RIJCOSX, COSX-SCS-MP3, EOM
   Christian Kollmar      : KDIIS, OOCD, Brueckner-CCSD(T), CCSD density
   Simone Kossmann        : Meta GGA functionals, TD-DFT gradient, OOMP2, MP2 Hessian
   Martin Krupicka        : AUTO-CI
   Lucas Lang             : DCDCAS
   Dagmar Lenk            : GEPOL surface, SMD
   Dimitrios Liakos       : Extrapolation schemes; Compound Job, initial MDCI parallelization
   Dimitrios Manganas     : Further ROCIS development; embedding schemes
   Dimitrios Pantazis     : SARC Basis sets
   Taras Petrenko         : DFT Hessian,TD-DFT gradient, ASA, ECA, R-Raman, ABS, FL, XAS/XES, NRVS
   Peter Pinski           : DLPNO-MP2, DLPNO-MP2 Gradient
   Christoph Reimann      : Effective Core Potentials
   Marius Retegan         : Local ZFS, SOC
   Christoph Riplinger    : Optimizer, TS searches, QM/MM, DLPNO-CCSD(T), (RO)-DLPNO pert. Triples
   Tobias Risthaus        : Range-separated hybrids, TD-DFT gradient, RPA, STAB
   Michael Roemelt        : Original ROCIS implementation
   Masaaki Saitow         : Open-shell DLPNO-CCSD energy and density
   Barbara Sandhoefer     : DKH picture change effects
   Avijit Sen             : IP-ROCIS
   Kantharuban Sivalingam : CASSCF convergence, NEVPT2, FIC-MRCI
   Bernardo de Souza      : ESD, SOC TD-DFT
   Georgi Stoychev        : AutoAux, RI-MP2 NMR
   Willem Van den Heuvel  : Paramagnetic NMR
   Boris Wezisla          : Elementary symmetry handling
   Frank Wennmohs         : Technical directorship


 We gratefully acknowledge several colleagues who have allowed us to
 interface, adapt or use parts of their codes:
   Stefan Grimme, W. Hujo, H. Kruse,             : VdW corrections, initial TS optimization,
                  C. Bannwarth                     DFT functionals, gCP, sTDA/sTD-DF
   Ed Valeev, F. Pavosevic, A. Kumar             : LibInt (2-el integral package), F12 methods
   Garnet Chan, S. Sharma, J. Yang, R. Olivares  : DMRG
   Ulf Ekstrom                                   : XCFun DFT Library
   Mihaly Kallay                                 : mrcc  (arbitrary order and MRCC methods)
   Andreas Klamt, Michael Diedenhofen            : otool_cosmo (COSMO solvation model)
   Jiri Pittner, Ondrej Demel                    : Mk-CCSD
   Frank Weinhold                                : gennbo (NPA and NBO analysis)
   Christopher J. Cramer and Donald G. Truhlar   : smd solvation model
   Lars Goerigk                                  : TD-DFT with DH, B97 family of functionals
   V. Asgeirsson, H. Jonsson                     : NEB implementation
   FAccTs GmbH                                   : IRC, NEB, NEB-TS, Multilevel, MM, QM/MM, CI optimization
   S Lehtola, MJT Oliveira, MAL Marques          : LibXC Library


 Your calculation uses the libint2 library for the computation of 2-el integrals
 For citations please refer to: http://libint.valeyev.net

 Your ORCA version has been built with support for libXC version: 4.2.3
 For citations please refer to: https://tddft.org/programs/libxc/

 This ORCA versions uses:
   CBLAS   interface :  Fast vector & matrix operations
   LAPACKE interface :  Fast linear algebra routines
   SCALAPACK package :  Parallel linear algebra routines


----- Orbital basis set information -----
Your calculation utilizes the basis: ANO-RCC-TZP
   H, He:       P.-O. Widmark, P.-A. Malmqvist, and B. O. Roos, Theor. Chim. Acta 77, 291 (1990).
   s block:     B. O. Roos, V. Veryazov and P.-O. Widmark, Theor. Chem. Acc. 111, 345 (2004).
   p block:     B. O. Roos, R. Lindh, P.-A. Malmqvist, V. Veryazov, and P.-O. Widmark, J. Phys. Chem. A 108, 2851 (2004).
   d block:     B. O. Roos, R. Lindh, P.-A. Malmqvist, V. Veryazov, and P.-O. Widmark, J. Phys. Chem. A 109, 6575 (2005).
   actinides:   B. O. Roos, R. Lindh, P.-A. Malmqvist, V. Veryazov, and P.-O. Widmark, Chem. Phys. Letters 409, 295 (2005).
   lanthanides: B. O. Roos, R. Lindh, P.-A. Malmqvist, V. Veryazov, P.-O. Widmark and A. C. Borin, J. Phys. Chem. A 112, 11431 (2008).

================================================================================
                                        WARNINGS
                       Please study these warnings very carefully!
================================================================================


INFO   : the flag for use of LIBINT has been found!

================================================================================
                                       INPUT FILE
================================================================================
NAME = Kr_ano-rcc-tzp_548.143956_.inp
|  1> ! LDA ano-rcc-tzp nori grid5 finalgrid6 verytightscf
|  2> %Pal NProcs 18 End
|  3> 
|  4> % REL
|  5>   Method ZORA
|  6>   ModelPot 1, 0, 0, 0
|  7>   velit 548.143956
|  8> END
|  9> 
| 10> *xyz 34 1
| 11> Kr 0.0 0.0 0.0
| 12> **                         ****END OF INPUT****
================================================================================

                       ****************************
                       * Single Point Calculation *
                       ****************************

---------------------------------
CARTESIAN COORDINATES (ANGSTROEM)
---------------------------------
  Kr     0.000000    0.000000    0.000000

----------------------------
CARTESIAN COORDINATES (A.U.)
----------------------------
  NO LB      ZA    FRAG     MASS         X           Y           Z
   0 Kr   36.0000    0    83.800    0.000000    0.000000    0.000000

--------------------------------
INTERNAL COORDINATES (ANGSTROEM)
--------------------------------
 Kr     0   0   0     0.000000000000     0.00000000     0.00000000

---------------------------
INTERNAL COORDINATES (A.U.)
---------------------------
 Kr     0   0   0     0.000000000000     0.00000000     0.00000000

---------------------
BASIS SET INFORMATION
---------------------
There are 1 groups of distinct atoms

 Group   1 Type Kr  : 120s85p33d8f2g contracted to 6s5p3d2f1g pattern {202020202020/1717171717/111111/44/2}

Atom   0Kr   basis set group =>   1


           ************************************************************
           *        Program running with 18 parallel MPI-processes    *
           *              working on a common directory               *
           ************************************************************


------------------------------------------------------------------------------
                       ORCA GTO INTEGRAL CALCULATION
                     -- ANO INTEGRAL GENERATION BRANCH --
------------------------------------------------------------------------------


Gathering ANO information                         ... done
Calculation Information:
Number of atoms                                   ... 1
Number of basis functions                         ... 59
Highest angular momentum                          ... 4
Number of primitive shells                        ... 54
Total number of shells                            ... 17
Maximum number of shells                          ... 17

Getting memory                                    ... done
Making prescreening integrals                     ... done
Gathering atom contracted prescreening            ... done
Making one-electron integrals                     ... done

Timings:

Total time                                        ...    0.5 sec
Prescreening matrix                               ...    0.4 sec
One-electron matrix                               ...    0.0 sec
Two-index integrals + Cholesky                    ...    0.0 sec


           ************************************************************
           *        Program running with 18 parallel MPI-processes    *
           *              working on a common directory               *
           ************************************************************
------------------------------------------------------------------------------
                          ORCA RELATIVISTIC HAMILTONIAN
------------------------------------------------------------------------------

Relativistic Method            ... ZORA(MP)
Treatment of potential         ... Van Wuellen
Nucleus model                  ... Point Nucleus
Speed of light used            ... 548.14395600000000


            *************************************************
            *         ZERO ORDER REGULAR APPROXIMATION      *
            *                     ZORA(MP)                  *
            *            Programmed by FN according to      *
            *                   C. van Wuellen              *
            *       J. Chem. Phys. (1998) vol 109, 392-399  *
            *************************************************

Terms included in model potential: +V(e,N)
Basis function cutoff value   ... 1.000000e-12
Loading the fitted atomic densities  (DKH4)  ... done
Calculating the cutoffs                      ... done
Number of fit functions                      ... 27
Setting up the integration grid ... done


           ************************************************************
           *        Program running with 18 parallel MPI-processes    *
           *              working on a common directory               *
           ************************************************************
-------------------------------------------------------------------------------
                                 ORCA SCF
-------------------------------------------------------------------------------

------------
SCF SETTINGS
------------
Hamiltonian:
 Density Functional     Method          .... DFT(GTOs)
 Exchange Functional    Exchange        .... Slater
   X-Alpha parameter    XAlpha          ....  0.666667
 Correlation Functional Correlation     .... VWN-5
 Gradients option       PostSCFGGA      .... off
   Density functional embedding theory  .... OFF

Relativistic Settings:
 Scalar relativistic method             .... ZORA
 Speed of light used       Velit        ....       548.143956
Orbital energies will be scaled


General Settings:
 Integral files         IntName         .... Kr_ano-rcc-tzp_548.143956_
 Hartree-Fock type      HFTyp           .... RHF
 Total Charge           Charge          ....   34
 Multiplicity           Mult            ....    1
 Number of Electrons    NEL             ....    2
 Basis Dimension        Dim             ....   59
 Nuclear Repulsion      ENuc            ....      0.0000000000 Eh

Convergence Acceleration:
 DIIS                   CNVDIIS         .... on
   Start iteration      DIISMaxIt       ....    12
   Startup error        DIISStart       ....  0.200000
   # of expansion vecs  DIISMaxEq       ....     5
   Bias factor          DIISBfac        ....   1.050
   Max. coefficient     DIISMaxC        ....  10.000
 Newton-Raphson         CNVNR           .... off
 SOSCF                  CNVSOSCF        .... on
   Start iteration      SOSCFMaxIt      ....   150
   Startup grad/error   SOSCFStart      ....  0.003300
 Level Shifting         CNVShift        .... on
   Level shift para.    LevelShift      ....    0.2500
   Turn off err/grad.   ShiftErr        ....    0.0010
 Zerner damping         CNVZerner       .... off
 Static damping         CNVDamp         .... on
   Fraction old density DampFac         ....    0.7000
   Max. Damping (<1)    DampMax         ....    0.9800
   Min. Damping (>=0)   DampMin         ....    0.0000
   Turn off err/grad.   DampErr         ....    0.1000
 Fernandez-Rico         CNVRico         .... off

SCF Procedure:
 Maximum # iterations   MaxIter         ....   125
 SCF integral mode      SCFMode         .... Direct
   Integral package                     .... LIBINT
 Reset frequency        DirectResetFreq ....    20
 Integral Threshold     Thresh          ....  1.000e-12 Eh
 Primitive CutOff       TCut            ....  1.000e-14 Eh

Convergence Tolerance:
 Convergence Check Mode ConvCheckMode   .... Total+1el-Energy
 Convergence forced     ConvForced      .... 0
 Energy Change          TolE            ....  1.000e-09 Eh
 1-El. energy change                    ....  1.000e-06 Eh
 Orbital Gradient       TolG            ....  2.000e-06
 Orbital Rotation angle TolX            ....  2.000e-06
 DIIS Error             TolErr          ....  1.000e-08


Diagonalization of the overlap matrix:
Smallest eigenvalue                        ... 1.000e+00
Time for diagonalization                   ...    0.002 sec
Threshold for overlap eigenvalues          ... 1.000e-08
Number of eigenvalues below threshold      ... 0
Time for construction of square roots      ...    0.001 sec
Total time needed                          ...    0.003 sec

-------------------
DFT GRID GENERATION
-------------------

General Integration Accuracy     IntAcc      ...  5.010
Radial Grid Type                 RadialGrid  ... Gauss-Chebyshev
Angular Grid (max. acc.)         AngularGrid ... Lebedev-434
Angular grid pruning method      GridPruning ... 3 (G Style)
Weight generation scheme         WeightScheme... Becke
Basis function cutoff            BFCut       ...    1.0000e-12
Integration weight cutoff        WCut        ...    1.0000e-14
Grids for H and He will be reduced by one unit

# of grid points (after initial pruning)     ...  16106 (   0.0 sec)
# of grid points (after weights+screening)   ...  16106 (   0.0 sec)
Grid point division into batches done        ...    0.2 sec
Reduced shell lists constructed in    0.2 sec

Total number of grid points                  ...    16106
Total number of batches                      ...      252
Average number of points per batch           ...       63
Average number of grid points per atom       ...    16106
Average number of shells per batch           ...    11.87 (69.80%)
Average number of basis functions per batch  ...    37.47 (63.50%)
Average number of large shells per batch     ...     4.40 (37.08%)
Average number of large basis fcns per batch ...    12.40 (33.10%)
Maximum spatial batch extension              ...  17.34, 17.34, 17.34 au
Average spatial batch extension              ...   0.86,  0.87,  0.87 au

Time for grid setup =    0.246 sec

------------------------------
INITIAL GUESS: MODEL POTENTIAL
------------------------------
Loading ZORA relativistic densities                ... done
Calculating cut-offs                               ... done
Setting up the integral package                    ... done
Initializing the effective Hamiltonian             ... done
Starting the Coulomb interaction                   ... done (   0.0 sec)
Reading the grid                                   ... done
Mapping shells                                     ... done
Starting the XC term evaluation                    ... done (   0.0 sec)
  promolecular density results
     # of electrons  =     36.000000565
     EX              =    -91.042004939
     EC              =     -3.295965580
     EX+EC           =    -94.337970520
Transforming the Hamiltonian                       ... done (   0.0 sec)
Diagonalizing the Hamiltonian                      ... done (   0.0 sec)
Back transforming the eigenvectors                 ... done (   0.0 sec)
Now organizing SCF variables                       ... done
                      ------------------
                      INITIAL GUESS DONE (   0.3 sec)
                      ------------------
--------------
SCF ITERATIONS
--------------
ITER       Energy         Delta-E        Max-DP      RMS-DP      [F,P]     Damp
               ***  Starting incremental Fock matrix formation  ***
  0  -1253.8323804245   0.000000000000 0.00448639  0.00008111  6.8576902 0.7000
  1  -1253.8505323587  -0.018151934216 0.00313584  0.00005669  4.7904978 0.7000
  2  -1253.8632041078  -0.012671749144 0.00219015  0.00003960  3.3457234 0.7000
                      *** Initiating the SOSCF procedure ***
                      *** Re-Reading the Fockian *** 
                      *** Removing any level shift *** 
ITER      Energy       Delta-E        Grad      Rot      Max-DP    RMS-DP
  3  -1253.87205750  -0.0088533965  0.002695  0.002695  0.005099  0.000092
               *** Restarting incremental Fock matrix formation ***
  4  -1253.89266202  -0.0206045125  0.006245  0.000014  0.000027  0.000000
  5  -1253.89266221  -0.0000001922  0.000032  0.000000  0.000000  0.000000
                 **** Energy Check signals convergence ****
              ***Rediagonalizing the Fockian in SOSCF/NRSCF***

               *****************************************************
               *                     SUCCESS                       *
               *           SCF CONVERGED AFTER   6 CYCLES          *
               *****************************************************

Setting up the final grid:

General Integration Accuracy     IntAcc      ...  5.340
Radial Grid Type                 RadialGrid  ... Gauss-Chebyshev
Angular Grid (max. acc.)         AngularGrid ... Lebedev-590
Angular grid pruning method      GridPruning ... 3 (G Style)
Weight generation scheme         WeightScheme... Becke
Basis function cutoff            BFCut       ...    1.0000e-12
Integration weight cutoff        WCut        ...    1.0000e-14
Grids for H and He will be reduced by one unit

# of grid points (after initial pruning)     ...  24180 (   0.0 sec)
# of grid points (after weights+screening)   ...  24180 (   0.0 sec)
Grid point division into batches done        ...    0.4 sec
Reduced shell lists constructed in    0.4 sec

Total number of grid points                  ...    24180
Total number of batches                      ...      378
Average number of points per batch           ...       63
Average number of grid points per atom       ...    24180
Average number of shells per batch           ...     7.77 (45.72%)
Average number of basis functions per batch  ...    23.86 (40.45%)
Average number of large shells per batch     ...     3.55 (45.61%)
Average number of large basis fcns per batch ...     9.82 (41.14%)
Maximum spatial batch extension              ...  17.58, 17.58, 17.58 au
Average spatial batch extension              ...   0.77,  0.77,  0.77 au

Final grid set up in    0.4 sec
Final integration                            ... done (   0.0 sec)
Change in XC energy                          ...    -0.000014991
Integrated number of electrons               ...     2.000000075
Previous integrated no of electrons          ...     1.999999430

----------------
TOTAL SCF ENERGY
----------------

Total Energy       :        -1253.89267720 Eh          -34120.15438 eV

Components:
Nuclear Repulsion  :            0.00000000 Eh               0.00000 eV
Electronic Energy  :        -1253.89267720 Eh          -34120.15438 eV
One Electron Energy:        -1279.58040112 Eh          -34819.15289 eV
Two Electron Energy:           25.68772392 Eh             698.99850 eV

Virial components:
Potential Energy   :        -2675.81743142 Eh          -72812.69403 eV
Kinetic Energy     :         1421.92475422 Eh           38692.53965 eV
Virial Ratio       :            1.88182773


DFT components:
N(Alpha)           :        1.000000037486 electrons
N(Beta)            :        1.000000037486 electrons
N(Total)           :        2.000000074971 electrons
E(X)               :      -19.626925998414 Eh       
E(C)               :       -0.278963666165 Eh       
E(XC)              :      -19.905889664578 Eh       
DFET-embed. en.    :        0.000000000000 Eh       

---------------
SCF CONVERGENCE
---------------

  Last Energy change         ...   -5.0022e-12  Tolerance :   1.0000e-09
  Last MAX-Density change    ...    0.0000e+00  Tolerance :   1.0000e-08
  Last RMS-Density change    ...    0.0000e+00  Tolerance :   1.0000e-09
  Last Orbital Gradient      ...    1.1735e-11  Tolerance :   2.0000e-06
  Last Orbital Rotation      ...    0.0000e+00  Tolerance :   2.0000e-06

================================================================================
                                        WARNING
Number of found core electrons (2) does not match given number of chemical core electrons (18)
================================================================================
             **** THE GBW FILE WAS UPDATED (Kr_ano-rcc-tzp_548.143956_.gbw) ****
             **** DENSITY FILE WAS UPDATED (Kr_ano-rcc-tzp_548.143956_.scfp) ****
             **** ENERGY FILE WAS UPDATED (Kr_ano-rcc-tzp_548.143956_.en.tmp) ****
             **** THE GBW FILE WAS UPDATED (Kr_ano-rcc-tzp_548.143956_.gbw) ****
             **** DENSITY FILE WAS UPDATED (Kr_ano-rcc-tzp_548.143956_.scfp) ****
----------------
ORBITAL ENERGIES
----------------

  NO   OCC          E(Eh)            E(eV) 
   0   2.0000    -607.430515    -16529.0246 
   1   0.0000    -147.736152     -4020.1051 
   2   0.0000    -146.726180     -3992.6223 
   3   0.0000    -146.726180     -3992.6223 
   4   0.0000    -146.726180     -3992.6223 
   5   0.0000     -62.163216     -1691.5471 
   6   0.0000     -59.743805     -1625.7116 
   7   0.0000     -59.743805     -1625.7116 
   8   0.0000     -59.743805     -1625.7116 
   9   0.0000     -55.914181     -1521.5022 
  10   0.0000     -55.914181     -1521.5022 
  11   0.0000     -55.914181     -1521.5022 
  12   0.0000     -55.914181     -1521.5022 
  13   0.0000     -55.914181     -1521.5022 
  14   0.0000     -30.258737      -823.3821 
  15   0.0000     -27.243482      -741.3328 
  16   0.0000     -27.243482      -741.3328 
  17   0.0000     -27.243482      -741.3328 
  18   0.0000     -22.379760      -608.9842 
  19   0.0000     -22.379760      -608.9842 
  20   0.0000     -22.379760      -608.9842 
  21   0.0000     -22.379760      -608.9842 
  22   0.0000     -22.379760      -608.9842 
  23   0.0000     -20.213858      -550.0470 
  24   0.0000     -20.213858      -550.0470 
  25   0.0000     -20.213858      -550.0470 
  26   0.0000     -20.213858      -550.0470 
  27   0.0000     -20.213858      -550.0470 
  28   0.0000     -20.213858      -550.0470 
  29   0.0000     -20.213858      -550.0470 
  30   0.0000     -17.061401      -464.2643 
  31   0.0000     -14.793869      -402.5616 
  32   0.0000     -14.793869      -402.5616 
  33   0.0000     -14.793869      -402.5616 
  34   0.0000     -14.749484      -401.3539 
  35   0.0000     -14.749484      -401.3539 
  36   0.0000     -14.749484      -401.3539 
  37   0.0000     -14.749484      -401.3539 
  38   0.0000     -14.749484      -401.3539 
  39   0.0000     -14.749484      -401.3539 
  40   0.0000     -14.749484      -401.3539 
  41   0.0000     -14.749484      -401.3539 
  42   0.0000     -14.749484      -401.3539 
  43   0.0000     -12.051175      -327.9292 
  44   0.0000     -12.051175      -327.9292 
  45   0.0000     -12.051175      -327.9292 
  46   0.0000     -12.051175      -327.9292 
  47   0.0000     -12.051175      -327.9292 
  48   0.0000     -11.774020      -320.3874 
  49   0.0000     -11.774020      -320.3874 
  50   0.0000     -11.774020      -320.3874 
  51   0.0000     -11.774020      -320.3874 
  52   0.0000     -11.774020      -320.3874 
  53   0.0000     -11.774020      -320.3874 
  54   0.0000     -11.774020      -320.3874 
  55   0.0000     -10.289385      -279.9884 
  56   0.0000      -8.571460      -233.2413 
  57   0.0000      -8.571460      -233.2413 
  58   0.0000      -8.571460      -233.2413 

                    ********************************
                    * MULLIKEN POPULATION ANALYSIS *
                    ********************************

-----------------------
MULLIKEN ATOMIC CHARGES
-----------------------
   0 Kr:   34.000000
Sum of atomic charges:   34.0000000

--------------------------------
MULLIKEN REDUCED ORBITAL CHARGES
--------------------------------
  0 Krs       :     2.000000  s :     2.000000
      pz      :     0.000000  p :     0.000000
      px      :     0.000000
      py      :     0.000000
      dz2     :     0.000000  d :     0.000000
      dxz     :     0.000000
      dyz     :     0.000000
      dx2y2   :     0.000000
      dxy     :     0.000000
      f0      :     0.000000  f :     0.000000
      f+1     :     0.000000
      f-1     :     0.000000
      f+2     :     0.000000
      f-2     :     0.000000
      f+3     :     0.000000
      f-3     :     0.000000
      g0      :     0.000000  g :     0.000000
      g+1     :     0.000000
      g-1     :     0.000000
      g+2     :     0.000000
      g-2     :     0.000000
      g+3     :     0.000000
      g-3     :     0.000000
      g+4     :     0.000000
      g-4     :     0.000000


                     *******************************
                     * LOEWDIN POPULATION ANALYSIS *
                     *******************************

----------------------
LOEWDIN ATOMIC CHARGES
----------------------
   0 Kr:   34.000000

-------------------------------
LOEWDIN REDUCED ORBITAL CHARGES
-------------------------------
  0 Krs       :     2.000000  s :     2.000000
      pz      :     0.000000  p :     0.000000
      px      :     0.000000
      py      :     0.000000
      dz2     :     0.000000  d :     0.000000
      dxz     :     0.000000
      dyz     :     0.000000
      dx2y2   :     0.000000
      dxy     :     0.000000
      f0      :     0.000000  f :     0.000000
      f+1     :     0.000000
      f-1     :     0.000000
      f+2     :     0.000000
      f-2     :     0.000000
      f+3     :     0.000000
      f-3     :     0.000000
      g0      :     0.000000  g :     0.000000
      g+1     :     0.000000
      g-1     :     0.000000
      g+2     :     0.000000
      g-2     :     0.000000
      g+3     :     0.000000
      g-3     :     0.000000
      g+4     :     0.000000
      g-4     :     0.000000


                      *****************************
                      * MAYER POPULATION ANALYSIS *
                      *****************************

  NA   - Mulliken gross atomic population
  ZA   - Total nuclear charge
  QA   - Mulliken gross atomic charge
  VA   - Mayer's total valence
  BVA  - Mayer's bonded valence
  FA   - Mayer's free valence

  ATOM       NA         ZA         QA         VA         BVA        FA
  0 Kr     2.0000    36.0000    34.0000    -0.0000     0.0000    -0.0000

  Mayer bond orders larger than 0.100000


--------------------------
ATOM BASIS FOR ELEMENT Kr
--------------------------
 NewGTO Kr
 S 119
    1   18535881.300000000745         0.000137345724
    2    2419299.990000000224         0.000443173937
    3     474949.065000000002         0.001295245373
    4     117392.346000000005         0.003458780496
    5      34065.440100000000         0.008980696551
    6      11133.885300000000         0.023267651572
    7       3988.280760000000         0.059848479378
    8       1534.678610000000         0.144119190322
    9        624.475513000000         0.287656201156
   10        265.735250000000         0.382469816275
   11        116.709586000000         0.227388475354
   12         50.306071000000         0.027102562973
   13         23.036081700000         0.000594168242
   14         10.586238100000        -0.000552232601
   15          4.798113940000         0.000380640436
   16          2.133543170000        -0.000271691760
   17          0.857316380000         0.000151514252
   18          0.378404470000        -0.000084021267
   19          0.152386050000         0.000035796279
   20          0.060954420000        -0.000009808980
   21   18535881.300000000745        -0.000000578340
   22    2419299.990000000224        -0.000001868143
   23     474949.065000000002        -0.000005470526
   24     117392.346000000005        -0.000014661364
   25      34065.440100000000        -0.000038335765
   26      11133.885300000000        -0.000100611398
   27       3988.280760000000        -0.000265899846
   28       1534.678610000000        -0.000677774730
   29        624.475513000000        -0.001536567766
   30        265.735250000000        -0.002659095867
   31        116.709586000000        -0.002127390595
   32         50.306071000000         0.003582700893
   33         23.036081700000         0.008446663989
   34         10.586238100000         0.003272171469
   35          4.798113940000         0.000133896138
   36          2.133543170000         0.000036638929
   37          0.857316380000        -0.000012013573
   38          0.378404470000         0.000005563388
   39          0.152386050000        -0.000002586749
   40   18535881.300000000745        -0.000000093161
   41    2419299.990000000224        -0.000000300941
   42     474949.065000000002        -0.000000881572
   43     117392.346000000005        -0.000002363727
   44      34065.440100000000        -0.000006186539
   45      11133.885300000000        -0.000016263020
   46       3988.280760000000        -0.000043135507
   47       1534.678610000000        -0.000110792504
   48        624.475513000000        -0.000255571434
   49        265.735250000000        -0.000459489672
   50        116.709586000000        -0.000393123312
   51         50.306071000000         0.000820177143
   52         23.036081700000         0.002771219424
   53         10.586238100000         0.001114952783
   54          4.798113940000        -0.003620444277
   55          2.133543170000        -0.003081409974
   56          0.857316380000        -0.000167788908
   57          0.378404470000        -0.000031130811
   58          0.152386050000         0.000012874317
   59          0.060954420000        -0.000004293708
   60   18535881.300000000745        -0.000000009614
   61    2419299.990000000224        -0.000000031056
   62     474949.065000000002        -0.000000090955
   63     117392.346000000005        -0.000000243872
   64      34065.440100000000        -0.000000638416
   65      11133.885300000000        -0.000001678627
   66       3988.280760000000        -0.000004454953
   67       1534.678610000000        -0.000011455917
   68        624.475513000000        -0.000026499137
   69        265.735250000000        -0.000047927761
   70        116.709586000000        -0.000041485370
   71         50.306071000000         0.000089542278
   72         23.036081700000         0.000320935759
   73         10.586238100000         0.000133430971
   74          4.798113940000        -0.000554874303
   75          2.133543170000        -0.000865191339
   76          0.857316380000         0.000354445941
   77          0.378404470000         0.001298839637
   78          0.152386050000         0.000490917004
   79          0.060954420000        -0.000001521818
   80   18535881.300000000745        -0.000000012621
   81    2419299.990000000224        -0.000000040793
   82     474949.065000000002        -0.000000119238
   83     117392.346000000005        -0.000000321357
   84      34065.440100000000        -0.000000832917
   85      11133.885300000000        -0.000002228256
   86       3988.280760000000        -0.000005761509
   87       1534.678610000000        -0.000015377285
   88        624.475513000000        -0.000033842468
   89        265.735250000000        -0.000066315695
   90        116.709586000000        -0.000046491968
   91         50.306071000000         0.000098617412
   92         23.036081700000         0.000498761844
   93         10.586238100000         0.000027814272
   94          4.798113940000        -0.000566619699
   95          2.133543170000        -0.002076281466
   96          0.857316380000         0.003482719137
   97          0.378404470000         0.000714490614
   98          0.152386050000        -0.002567390872
   99          0.060954420000        -0.000059185097
  100   18535881.300000000745        -0.000000020273
  101    2419299.990000000224        -0.000000065381
  102     474949.065000000002        -0.000000192541
  103     117392.346000000005        -0.000000510416
  104      34065.440100000000        -0.000001366403
  105      11133.885300000000        -0.000003459470
  106       3988.280760000000        -0.000009727479
  107       1534.678610000000        -0.000023123205
  108        624.475513000000        -0.000059773669
  109        265.735250000000        -0.000092211432
  110        116.709586000000        -0.000115661112
  111         50.306071000000         0.000283036311
  112         23.036081700000         0.000568865740
  113         10.586238100000         0.000604929356
  114          4.798113940000        -0.002629052019
  115          2.133543170000        -0.001393845670
  116          0.857316380000         0.009667151769
  117          0.378404470000        -0.010794829752
  118          0.152386050000         0.003637775803
  119          0.060954420000         0.001079102344
 S 118
    1   18535881.300000000745         0.000001832156
    2    2419299.990000000224         0.000005911824
    3     474949.065000000002         0.000017278234
    4     117392.346000000005         0.000046139227
    5      34065.440100000000         0.000119800142
    6      11133.885300000000         0.000310384383
    7       3988.280760000000         0.000798363052
    8       1534.678610000000         0.001922512283
    9        624.475513000000         0.003837258443
   10        265.735250000000         0.005102047256
   11        116.709586000000         0.003033302753
   12         50.306071000000         0.000361541097
   13         23.036081700000         0.000007926049
   14         10.586238100000        -0.000007366638
   15          4.798113940000         0.000005077644
   16          2.133543170000        -0.000003624297
   17          0.857316380000         0.000002021160
   18          0.378404470000        -0.000001120822
   19   18535881.300000000745         0.000044443176
   20    2419299.990000000224         0.000143559543
   21     474949.065000000002         0.000420388732
   22     117392.346000000005         0.001126668948
   23      34065.440100000000         0.002945954804
   24      11133.885300000000         0.007731595611
   25       3988.280760000000         0.020433371514
   26       1534.678610000000         0.052084358376
   27        624.475513000000         0.118079271195
   28        265.735250000000         0.204341200517
   29        116.709586000000         0.163481713314
   30         50.306071000000        -0.275316663369
   31         23.036081700000        -0.649093355941
   32         10.586238100000        -0.251453681916
   33          4.798113940000        -0.010289398706
   34          2.133543170000        -0.002815559543
   35          0.857316380000         0.000923196450
   36          0.378404470000        -0.000427524791
   37          0.152386050000         0.000198781662
   38          0.060954420000        -0.000051838728
   39   18535881.300000000745         0.000001003794
   40    2419299.990000000224         0.000003242596
   41     474949.065000000002         0.000009498814
   42     117392.346000000005         0.000025468824
   43      34065.440100000000         0.000066659089
   44      11133.885300000000         0.000175231757
   45       3988.280760000000         0.000464779025
   46       1534.678610000000         0.001193773655
   47        624.475513000000         0.002753746260
   48        265.735250000000         0.004950936603
   49        116.709586000000         0.004235848411
   50         50.306071000000        -0.008837293383
   51         23.036081700000        -0.029859499615
   52         10.586238100000        -0.012013459456
   53          4.798113940000         0.039009777989
   54          2.133543170000         0.033201759168
   55          0.857316380000         0.001807901890
   56          0.378404470000         0.000335430116
   57          0.152386050000        -0.000138718959
   58          0.060954420000         0.000046264099
   59   18535881.300000000745         0.000000076607
   60    2419299.990000000224         0.000000247449
   61     474949.065000000002         0.000000724720
   62     117392.346000000005         0.000001943145
   63      34065.440100000000         0.000005086823
   64      11133.885300000000         0.000013375112
   65       3988.280760000000         0.000035496565
   66       1534.678610000000         0.000091279456
   67        624.475513000000         0.000211142141
   68        265.735250000000         0.000381883002
   69        116.709586000000         0.000330550751
   70         50.306071000000        -0.000713462781
   71         23.036081700000        -0.002557179970
   72         10.586238100000        -0.001063162944
   73          4.798113940000         0.004421175930
   74          2.133543170000         0.006893747102
   75          0.857316380000        -0.002824185321
   76          0.378404470000        -0.010349007881
   77          0.152386050000        -0.003911571378
   78          0.060954420000         0.000012125672
   79   18535881.300000000745         0.000000091127
   80    2419299.990000000224         0.000000294549
   81     474949.065000000002         0.000000860969
   82     117392.346000000005         0.000002320383
   83      34065.440100000000         0.000006014137
   84      11133.885300000000         0.000016089288
   85       3988.280760000000         0.000041601403
   86       1534.678610000000         0.000111032828
   87        624.475513000000         0.000244362057
   88        265.735250000000         0.000478837404
   89        116.709586000000         0.000335698710
   90         50.306071000000        -0.000712074352
   91         23.036081700000        -0.003601346955
   92         10.586238100000        -0.000200835020
   93          4.798113940000         0.004091319640
   94          2.133543170000         0.014991944616
   95          0.857316380000        -0.025147232343
   96          0.378404470000        -0.005159032572
   97          0.152386050000         0.018538036582
   98          0.060954420000         0.000427350391
   99   18535881.300000000745         0.000000124914
  100    2419299.990000000224         0.000000402863
  101     474949.065000000002         0.000001186388
  102     117392.346000000005         0.000003145054
  103      34065.440100000000         0.000008419421
  104      11133.885300000000         0.000021316362
  105       3988.280760000000         0.000059938217
  106       1534.678610000000         0.000142479234
  107        624.475513000000         0.000368309946
  108        265.735250000000         0.000568183085
  109        116.709586000000         0.000712673969
  110         50.306071000000        -0.001743996816
  111         23.036081700000        -0.003505204108
  112         10.586238100000        -0.003727418822
  113          4.798113940000         0.016199541110
  114          2.133543170000         0.008588517865
  115          0.857316380000        -0.059566498265
  116          0.378404470000         0.066514959426
  117          0.152386050000        -0.022415037153
  118          0.060954420000        -0.006649150591
 S 118
    1   18535881.300000000745         0.000000702160
    2    2419299.990000000224         0.000002265664
    3     474949.065000000002         0.000006621757
    4     117392.346000000005         0.000017682522
    5      34065.440100000000         0.000045912530
    6      11133.885300000000         0.000118952550
    7       3988.280760000000         0.000305966814
    8       1534.678610000000         0.000736788803
    9        624.475513000000         0.001470601296
   10        265.735250000000         0.001955322378
   11        116.709586000000         0.001162491144
   12         50.306071000000         0.000138557987
   13         23.036081700000         0.000003037600
   14         10.586238100000        -0.000002823210
   15          4.798113940000         0.000001945970
   16          2.133543170000        -0.000001388985
   17          0.857316380000         0.000000774595
   18          0.378404470000        -0.000000429547
   19   18535881.300000000745        -0.000002689340
   20    2419299.990000000224        -0.000008687058
   21     474949.065000000002        -0.000025438512
   22     117392.346000000005        -0.000068176855
   23      34065.440100000000        -0.000178265261
   24      11133.885300000000        -0.000467853379
   25       3988.280760000000        -0.001236461707
   26       1534.678610000000        -0.003151722398
   27        624.475513000000        -0.007145198585
   28        265.735250000000        -0.012365070025
   29        116.709586000000        -0.009892585675
   30         50.306071000000         0.016659928654
   31         23.036081700000         0.039277858693
   32         10.586238100000         0.015215934805
   33          4.798113940000         0.000622630851
   34          2.133543170000         0.000170374799
   35          0.857316380000        -0.000055864352
   36          0.378404470000         0.000025870328
   37          0.152386050000        -0.000012028652
   38          0.060954420000         0.000003136859
   39   18535881.300000000745         0.000017274407
   40    2419299.990000000224         0.000055802212
   41     474949.065000000002         0.000163466183
   42     117392.346000000005         0.000438295932
   43      34065.440100000000         0.001147143957
   44      11133.885300000000         0.003015583532
   45       3988.280760000000         0.007998435902
   46       1534.678610000000         0.020543788661
   47        624.475513000000         0.047389537339
   48        265.735250000000         0.085201239630
   49        116.709586000000         0.072895204369
   50         50.306071000000        -0.152082002184
   51         23.036081700000        -0.513855576463
   52         10.586238100000        -0.206741010857
   53          4.798113940000         0.671323773492
   54          2.133543170000         0.571372907012
   55          0.857316380000         0.031112392372
   56          0.378404470000         0.005772455600
   57          0.152386050000        -0.002387230584
   58          0.060954420000         0.000796164228
   59   18535881.300000000745         0.000000927971
   60    2419299.990000000224         0.000002997443
   61     474949.065000000002         0.000008778798
   62     117392.346000000005         0.000023538033
   63      34065.440100000000         0.000061618559
   64      11133.885300000000         0.000162017636
   65       3988.280760000000         0.000429982909
   66       1534.678610000000         0.001105701529
   67        624.475513000000         0.002557642202
   68        265.735250000000         0.004625888875
   69        116.709586000000         0.004004082480
   70         50.306071000000        -0.008642436350
   71         23.036081700000        -0.030976058896
   72         10.586238100000        -0.012878482681
   73          4.798113940000         0.053555325641
   74          2.133543170000         0.083506487126
   75          0.857316380000        -0.034210392643
   76          0.378404470000        -0.125361328262
   77          0.152386050000        -0.047382298790
   78          0.060954420000         0.000146882718
   79   18535881.300000000745         0.000001004953
   80    2419299.990000000224         0.000003248287
   81     474949.065000000002         0.000009494760
   82     117392.346000000005         0.000025589165
   83      34065.440100000000         0.000066323867
   84      11133.885300000000         0.000177432563
   85       3988.280760000000         0.000458779995
   86       1534.678610000000         0.001224469304
   87        624.475513000000         0.002694823174
   88        265.735250000000         0.005280615767
   89        116.709586000000         0.003702083178
   90         50.306071000000        -0.007852751307
   91         23.036081700000        -0.039715630700
   92         10.586238100000        -0.002214807294
   93          4.798113940000         0.045119046268
   94          2.133543170000         0.165331067293
   95          0.857316380000        -0.277323514007
   96          0.378404470000        -0.056893777506
   97          0.152386050000         0.204437346328
   98          0.060954420000         0.004712817318
   99   18535881.300000000745         0.000001174532
  100    2419299.990000000224         0.000003788005
  101     474949.065000000002         0.000011155271
  102     117392.346000000005         0.000029572044
  103      34065.440100000000         0.000079165406
  104      11133.885300000000         0.000200431662
  105       3988.280760000000         0.000563581931
  106       1534.678610000000         0.001339691533
  107        624.475513000000         0.003463113211
  108        265.735250000000         0.005342463239
  109        116.709586000000         0.006701069747
  110         50.306071000000        -0.016398303865
  111         23.036081700000        -0.032958432915
  112         10.586238100000        -0.035047854395
  113          4.798113940000         0.152319657427
  114          2.133543170000         0.080755380047
  115          0.857316380000        -0.560086767164
  116          0.378404470000         0.625421162529
  117          0.152386050000        -0.210762191173
  118          0.060954420000        -0.062520063579
 S 116
    1   18535881.300000000745        -0.000000238059
    2    2419299.990000000224        -0.000000768145
    3     474949.065000000002        -0.000002245024
    4     117392.346000000005        -0.000005995039
    5      34065.440100000000        -0.000015566071
    6      11133.885300000000        -0.000040329378
    7       3988.280760000000        -0.000103734232
    8       1534.678610000000        -0.000249799054
    9        624.475513000000        -0.000498589028
   10        265.735250000000        -0.000662927666
   11        116.709586000000        -0.000394128124
   12         50.306071000000        -0.000046976357
   13         23.036081700000        -0.000001029861
   14         10.586238100000         0.000000957174
   15          4.798113940000        -0.000000659757
   16          2.133543170000         0.000000470918
   17          0.857316380000        -0.000000262617
   18   18535881.300000000745         0.000000367064
   19    2419299.990000000224         0.000001185683
   20     474949.065000000002         0.000003472062
   21     117392.346000000005         0.000009305349
   22      34065.440100000000         0.000024331138
   23      11133.885300000000         0.000063856554
   24       3988.280760000000         0.000168762667
   25       1534.678610000000         0.000430173514
   26        624.475513000000         0.000975236647
   27        265.735250000000         0.001687688493
   28        116.709586000000         0.001350223086
   29         50.306071000000        -0.002273886830
   30         23.036081700000        -0.005360971674
   31         10.586238100000        -0.002076798435
   32          4.798113940000        -0.000084981882
   33          2.133543170000        -0.000023254182
   34          0.857316380000         0.000007624835
   35          0.378404470000        -0.000003530999
   36          0.152386050000         0.000001641771
   37   18535881.300000000745         0.000004669976
   38    2419299.990000000224         0.000015085611
   39     474949.065000000002         0.000044191568
   40     117392.346000000005         0.000118489245
   41      34065.440100000000         0.000310119742
   42      11133.885300000000         0.000815235073
   43       3988.280760000000         0.002162303053
   44       1534.678610000000         0.005553822957
   45        624.475513000000         0.012811322426
   46        265.735250000000         0.023033365871
   47        116.709586000000         0.019706543235
   48         50.306071000000        -0.041113960476
   49         23.036081700000        -0.138916094987
   50         10.586238100000        -0.055890517137
   51          4.798113940000         0.181486163345
   52          2.133543170000         0.154465372489
   53          0.857316380000         0.008410947068
   54          0.378404470000         0.001560529898
   55          0.152386050000        -0.000645365674
   56          0.060954420000         0.000215235624
   57   18535881.300000000745        -0.000003786971
   58    2419299.990000000224        -0.000012232311
   59     474949.065000000002        -0.000035825536
   60     117392.346000000005        -0.000096056727
   61      34065.440100000000        -0.000251460145
   62      11133.885300000000        -0.000661180317
   63       3988.280760000000        -0.001754724012
   64       1534.678610000000        -0.004512274751
   65        624.475513000000        -0.010437522273
   66        265.735250000000        -0.018877862637
   67        116.709586000000        -0.016340323144
   68         50.306071000000         0.035269054374
   69         23.036081700000         0.126410685746
   70         10.586238100000         0.052556002445
   71          4.798113940000        -0.218554770391
   72          2.133543170000        -0.340782936183
   73          0.857316380000         0.139609729183
   74          0.378404470000         0.511589015405
   75          0.152386050000         0.193363168067
   76          0.060954420000        -0.000599415992
   77   18535881.300000000745        -0.000003752683
   78    2419299.990000000224        -0.000012129714
   79     474949.065000000002        -0.000035455215
   80     117392.346000000005        -0.000095554749
   81      34065.440100000000        -0.000247665774
   82      11133.885300000000        -0.000662566508
   83       3988.280760000000        -0.001713170652
   84       1534.678610000000        -0.004572398314
   85        624.475513000000        -0.010062975769
   86        265.735250000000        -0.019718810878
   87        116.709586000000        -0.013824273769
   88         50.306071000000         0.029323647983
   89         23.036081700000         0.148305622897
   90         10.586238100000         0.008270506336
   91          4.798113940000        -0.168482991291
   92          2.133543170000        -0.617377251408
   93          0.857316380000         1.035578077557
   94          0.378404470000         0.212452048814
   95          0.152386050000        -0.763407440765
   96          0.060954420000        -0.017598544846
   97   18535881.300000000745        -0.000003605078
   98    2419299.990000000224        -0.000011626803
   99     474949.065000000002        -0.000034239695
  100     117392.346000000005        -0.000090767655
  101      34065.440100000000        -0.000242988216
  102      11133.885300000000        -0.000615199674
  103       3988.280760000000        -0.001729843565
  104       1534.678610000000        -0.004112013978
  105        624.475513000000        -0.010629588659
  106        265.735250000000        -0.016398016236
  107        116.709586000000        -0.020568087342
  108         50.306071000000         0.050332522847
  109         23.036081700000         0.101161747660
  110         10.586238100000         0.107574963031
  111          4.798113940000        -0.467525952710
  112          2.133543170000        -0.247868440822
  113          0.857316380000         1.719115600980
  114          0.378404470000        -1.919651276765
  115          0.152386050000         0.646907929599
  116          0.060954420000         0.191897439780
 S 115
    1   18535881.300000000745        -0.000000107619
    2    2419299.990000000224        -0.000000347255
    3     474949.065000000002        -0.000001014907
    4     117392.346000000005        -0.000002710173
    5      34065.440100000000        -0.000007036944
    6      11133.885300000000        -0.000018231678
    7       3988.280760000000        -0.000046895072
    8       1534.678610000000        -0.000112926508
    9        624.475513000000        -0.000225396841
   10        265.735250000000        -0.000299689310
   11        116.709586000000        -0.000178173263
   12         50.306071000000        -0.000021236574
   13         23.036081700000        -0.000000465568
   14         10.586238100000         0.000000432709
   15          4.798113940000        -0.000000298256
   16          2.133543170000         0.000000212888
   17   18535881.300000000745         0.000000135911
   18    2419299.990000000224         0.000000439018
   19     474949.065000000002         0.000001285588
   20     117392.346000000005         0.000003445458
   21      34065.440100000000         0.000009009003
   22      11133.885300000000         0.000023643937
   23       3988.280760000000         0.000062487147
   24       1534.678610000000         0.000159278802
   25        624.475513000000         0.000361097371
   26        265.735250000000         0.000624894358
   27        116.709586000000         0.000499942253
   28         50.306071000000        -0.000841943911
   29         23.036081700000        -0.001984987729
   30         10.586238100000        -0.000768968699
   31          4.798113940000        -0.000031465936
   32          2.133543170000        -0.000008610242
   33          0.857316380000         0.000002823220
   34          0.378404470000        -0.000001307410
   35          0.152386050000         0.000000607893
   36   18535881.300000000745         0.000000450588
   37    2419299.990000000224         0.000001455551
   38     474949.065000000002         0.000004263870
   39     117392.346000000005         0.000011432560
   40      34065.440100000000         0.000029922231
   41      11133.885300000000         0.000078658817
   42       3988.280760000000         0.000208632094
   43       1534.678610000000         0.000535866474
   44        624.475513000000         0.001236113976
   45        265.735250000000         0.002222398634
   46        116.709586000000         0.001901406638
   47         50.306071000000        -0.003966923902
   48         23.036081700000        -0.013403466150
   49         10.586238100000        -0.005392655578
   50          4.798113940000         0.017510884159
   51          2.133543170000         0.014903754613
   52          0.857316380000         0.000811539112
   53          0.378404470000         0.000150569375
   54          0.152386050000        -0.000062268789
   55          0.060954420000         0.000020767236
   56   18535881.300000000745         0.000004098369
   57    2419299.990000000224         0.000013238158
   58     474949.065000000002         0.000038771425
   59     117392.346000000005         0.000103955351
   60      34065.440100000000         0.000272137396
   61      11133.885300000000         0.000715548341
   62       3988.280760000000         0.001899012755
   63       1534.678610000000         0.004883313416
   64        624.475513000000         0.011295786571
   65        265.735250000000         0.020430165482
   66        116.709586000000         0.017683967317
   67         50.306071000000        -0.038169184251
   68         23.036081700000        -0.136805277070
   69         10.586238100000        -0.056877616269
   70          4.798113940000         0.236526253630
   71          2.133543170000         0.368805087403
   72          0.857316380000        -0.151089661209
   73          0.378404470000        -0.553656335185
   74          0.152386050000        -0.209263177606
   75          0.060954420000         0.000648705213
   76   18535881.300000000745        -0.000002292542
   77    2419299.990000000224        -0.000007410133
   78     474949.065000000002        -0.000021659856
   79     117392.346000000005        -0.000058375110
   80      34065.440100000000        -0.000151300872
   81      11133.885300000000        -0.000404766831
   82       3988.280760000000        -0.001046588754
   83       1534.678610000000        -0.002793312300
   84        624.475513000000        -0.006147547098
   85        265.735250000000        -0.012046368923
   86        116.709586000000        -0.008445352154
   87         50.306071000000         0.017914035687
   88         23.036081700000         0.090601013310
   89         10.586238100000         0.005052514126
   90          4.798113940000        -0.102927518446
   91          2.133543170000        -0.377160376521
   92          0.857316380000         0.632642386414
   93          0.378404470000         0.129788544266
   94          0.152386050000        -0.466371310477
   95          0.060954420000        -0.010751082559
   96   18535881.300000000745        -0.000005182365
   97    2419299.990000000224        -0.000016713742
   98     474949.065000000002        -0.000049220189
   99     117392.346000000005        -0.000130480166
  100      34065.440100000000        -0.000349300008
  101      11133.885300000000        -0.000884360791
  102       3988.280760000000        -0.002486681785
  103       1534.678610000000        -0.005911095354
  104        624.475513000000        -0.015280228249
  105        265.735250000000        -0.023572448470
  106        116.709586000000        -0.029567002008
  107         50.306071000000         0.072353922820
  108         23.036081700000         0.145421863807
  109         10.586238100000         0.154640978283
  110          4.798113940000        -0.672077114065
  111          2.133543170000        -0.356315420373
  112          0.857316380000         2.471260141071
  113          0.378404470000        -2.759533845381
  114          0.152386050000         0.929941989039
  115          0.060954420000         0.275856081948
 S 114
    1   18535881.300000000745        -0.000000057496
    2    2419299.990000000224        -0.000000185521
    3     474949.065000000002        -0.000000542215
    4     117392.346000000005        -0.000001447914
    5      34065.440100000000        -0.000003759497
    6      11133.885300000000        -0.000009740299
    7       3988.280760000000        -0.000025053758
    8       1534.678610000000        -0.000060331145
    9        624.475513000000        -0.000120418579
   10        265.735250000000        -0.000160109435
   11        116.709586000000        -0.000095189316
   12         50.306071000000        -0.000011345669
   13         23.036081700000        -0.000000248731
   14         10.586238100000         0.000000231175
   15          4.798113940000        -0.000000159344
   16          2.133543170000         0.000000113736
   17   18535881.300000000745         0.000000068840
   18    2419299.990000000224         0.000000222366
   19     474949.065000000002         0.000000651160
   20     117392.346000000005         0.000001745152
   21      34065.440100000000         0.000004563131
   22      11133.885300000000         0.000011975840
   23       3988.280760000000         0.000031650232
   24       1534.678610000000         0.000080675968
   25        624.475513000000         0.000182898663
   26        265.735250000000         0.000316513914
   27        116.709586000000         0.000253224689
   28         50.306071000000        -0.000426451223
   29         23.036081700000        -0.001005411921
   30         10.586238100000        -0.000389488703
   31          4.798113940000        -0.000015937745
   32          2.133543170000        -0.000004361156
   33          0.857316380000         0.000001429983
   34          0.378404470000        -0.000000662214
   35   18535881.300000000745         0.000000227525
   36    2419299.990000000224         0.000000734983
   37     474949.065000000002         0.000002153050
   38     117392.346000000005         0.000005772893
   39      34065.440100000000         0.000015109289
   40      11133.885300000000         0.000039718923
   41       3988.280760000000         0.000105349181
   42       1534.678610000000         0.000270586818
   43        624.475513000000         0.000624178155
   44        265.735250000000         0.001122204511
   45        116.709586000000         0.000960118978
   46         50.306071000000        -0.002003105936
   47         23.036081700000        -0.006768106288
   48         10.586238100000        -0.002723031917
   49          4.798113940000         0.008842154996
   50          2.133543170000         0.007525679864
   51          0.857316380000         0.000409788252
   52          0.378404470000         0.000076030299
   53          0.152386050000        -0.000031442746
   54          0.060954420000         0.000010486456
   55   18535881.300000000745        -0.000001184704
   56    2419299.990000000224        -0.000003826718
   57     474949.065000000002        -0.000011207550
   58     117392.346000000005        -0.000030050089
   59      34065.440100000000        -0.000078666014
   60      11133.885300000000        -0.000206841605
   61       3988.280760000000        -0.000548942432
   62       1534.678610000000        -0.001411606075
   63        624.475513000000        -0.003265242181
   64        265.735250000000        -0.005905692152
   65        116.709586000000        -0.005111856147
   66         50.306071000000         0.011033461872
   67         23.036081700000         0.039545927899
   68         10.586238100000         0.016441457232
   69          4.798113940000        -0.068371998308
   70          2.133543170000        -0.106609479603
   71          0.857316380000         0.043675075819
   72          0.378404470000         0.160043925068
   73          0.152386050000         0.060491135363
   74          0.060954420000        -0.000187519445
   75   18535881.300000000745         0.000004857996
   76    2419299.990000000224         0.000015702391
   77     474949.065000000002         0.000045898170
   78     117392.346000000005         0.000123699378
   79      34065.440100000000         0.000320613078
   80      11133.885300000000         0.000857718386
   81       3988.280760000000         0.002217766743
   82       1534.678610000000         0.005919149329
   83        624.475513000000         0.013026917643
   84        265.735250000000         0.025526775698
   85        116.709586000000         0.017896065735
   86         50.306071000000        -0.037960614833
   87         23.036081700000        -0.191987457758
   88         10.586238100000        -0.010706495511
   89          4.798113940000         0.218107854183
   90          2.133543170000         0.799219116982
   91          0.857316380000        -1.340596523153
   92          0.378404470000        -0.275027527280
   93          0.152386050000         0.988260936589
   94          0.060954420000         0.022782007986
   95   18535881.300000000745        -0.000005475816
   96    2419299.990000000224        -0.000017660157
   97     474949.065000000002        -0.000052007280
   98     117392.346000000005        -0.000137868601
   99      34065.440100000000        -0.000369079112
  100      11133.885300000000        -0.000934437696
  101       3988.280760000000        -0.002627490072
  102       1534.678610000000        -0.006245810965
  103        624.475513000000        -0.016145470750
  104        265.735250000000        -0.024907237710
  105        116.709586000000        -0.031241232677
  106         50.306071000000         0.076450961692
  107         23.036081700000         0.153656372810
  108         10.586238100000         0.163397519387
  109          4.798113940000        -0.710133462000
  110          2.133543170000        -0.376491771165
  111          0.857316380000         2.611195177989
  112          0.378404470000        -2.915792372806
  113          0.152386050000         0.982599928365
  114          0.060954420000         0.291476424934
 P 85
    1     178109.355000000010         0.000044867243
    2      27138.037499999999         0.000233188048
    3       6512.317450000000         0.001114214819
    4       2033.629170000000         0.004942494094
    5        749.824546000000         0.019483796933
    6        308.463093000000         0.064721121923
    7        137.031449000000         0.169371717229
    8         64.114040700000         0.319646207545
    9         31.107038200000         0.372559987778
   10         15.366235600000         0.200972909332
   11          7.391254080000         0.033569499391
   12          3.530697220000         0.001268832859
   13          1.678108190000         0.000449140934
   14          0.683391650000        -0.000070784779
   15          0.276466560000         0.000014992298
   16          0.105540690000        -0.000015490712
   17          0.042216280000         0.000003827821
   18     178109.355000000010         0.000001345535
   19      27138.037499999999         0.000006999123
   20       6512.317450000000         0.000033547648
   21       2033.629170000000         0.000149344141
   22        749.824546000000         0.000595426673
   23        308.463093000000         0.002017807155
   24        137.031449000000         0.005499232988
   25         64.114040700000         0.010924242782
   26         31.107038200000         0.013289484047
   27         15.366235600000        -0.000297080079
   28          7.391254080000        -0.027612580421
   29          3.530697220000        -0.037011025297
   30          1.678108190000        -0.015634788859
   31          0.683391650000        -0.001211392692
   32          0.276466560000        -0.000010654530
   33          0.105540690000        -0.000034083228
   34          0.042216280000         0.000005349947
   35     178109.355000000010         0.000000081676
   36      27138.037499999999         0.000000423885
   37       6512.317450000000         0.000002040147
   38       2033.629170000000         0.000009039206
   39        749.824546000000         0.000036317619
   40        308.463093000000         0.000122551227
   41        137.031449000000         0.000338570079
   42         64.114040700000         0.000670360873
   43         31.107038200000         0.000837667942
   44         15.366235600000        -0.000144123015
   45          7.391254080000        -0.002063726209
   46          3.530697220000        -0.003335171191
   47          1.678108190000        -0.000584298290
   48          0.683391650000         0.006506475943
   49          0.276466560000         0.008762316569
   50          0.105540690000         0.003227701451
   51          0.042216280000         0.000017516269
   52     178109.355000000010         0.000000102473
   53      27138.037499999999         0.000000527994
   54       6512.317450000000         0.000002576404
   55       2033.629170000000         0.000011199731
   56        749.824546000000         0.000046046486
   57        308.463093000000         0.000151593933
   58        137.031449000000         0.000432194412
   59         64.114040700000         0.000822151713
   60         31.107038200000         0.001104222586
   61         15.366235600000        -0.000317192220
   62          7.391254080000        -0.002592649941
   63          3.530697220000        -0.004683431066
   64          1.678108190000        -0.000479593710
   65          0.683391650000         0.018595604953
   66          0.276466560000        -0.003850309925
   67          0.105540690000        -0.014125075078
   68          0.042216280000        -0.000629030682
   69     178109.355000000010         0.000000166144
   70      27138.037499999999         0.000000786306
   71       6512.317450000000         0.000004498232
   72       2033.629170000000         0.000015520503
   73        749.824546000000         0.000083420032
   74        308.463093000000         0.000202825919
   75        137.031449000000         0.000818165349
   76         64.114040700000         0.000950667226
   77         31.107038200000         0.002686705643
   78         15.366235600000        -0.002727469789
   79          7.391254080000        -0.000424905445
   80          3.530697220000        -0.016660224209
   81          1.678108190000         0.019314043370
   82          0.683391650000         0.017964141833
   83          0.276466560000        -0.041904608523
   84          0.105540690000         0.024906473881
   85          0.042216280000         0.002612774750
 P 84
    1     178109.355000000010        -0.000003546103
    2      27138.037499999999        -0.000018430126
    3       6512.317450000000        -0.000088062486
    4       2033.629170000000        -0.000390632317
    5        749.824546000000        -0.001539910943
    6        308.463093000000        -0.005115263941
    7        137.031449000000        -0.013386372362
    8         64.114040700000        -0.025263386522
    9         31.107038200000        -0.029445451727
   10         15.366235600000        -0.015883987262
   11          7.391254080000        -0.002653180981
   12          3.530697220000        -0.000100282794
   13          1.678108190000        -0.000035498062
   14          0.683391650000         0.000005594508
   15          0.276466560000        -0.000001184923
   16          0.105540690000         0.000001224316
   17     178109.355000000010         0.000017688613
   18      27138.037499999999         0.000092011565
   19       6512.317450000000         0.000441022607
   20       2033.629170000000         0.001963301332
   21        749.824546000000         0.007827571748
   22        308.463093000000         0.026526407020
   23        137.031449000000         0.072293773064
   24         64.114040700000         0.143611796476
   25         31.107038200000         0.174705626407
   26         15.366235600000        -0.003905460972
   27          7.391254080000        -0.362999281386
   28          3.530697220000        -0.486552701024
   29          1.678108190000        -0.205537368618
   30          0.683391650000        -0.015925156944
   31          0.276466560000        -0.000140066110
   32          0.105540690000        -0.000448063425
   33          0.042216280000         0.000070331232
   34     178109.355000000010         0.000000768417
   35      27138.037499999999         0.000003987950
   36       6512.317450000000         0.000019193891
   37       2033.629170000000         0.000085041690
   38        749.824546000000         0.000341679533
   39        308.463093000000         0.001152973311
   40        137.031449000000         0.003185298713
   41         64.114040700000         0.006306817287
   42         31.107038200000         0.007880857712
   43         15.366235600000        -0.001355922694
   44          7.391254080000        -0.019415727636
   45          3.530697220000        -0.031377599984
   46          1.678108190000        -0.005497132524
   47          0.683391650000         0.061213529309
   48          0.276466560000         0.082436687207
   49          0.105540690000         0.030366514701
   50          0.042216280000         0.000164794683
   51     178109.355000000010         0.000000890079
   52      27138.037499999999         0.000004586169
   53       6512.317450000000         0.000022378695
   54       2033.629170000000         0.000097281097
   55        749.824546000000         0.000399960721
   56        308.463093000000         0.001316748013
   57        137.031449000000         0.003754049531
   58         64.114040700000         0.007141226647
   59         31.107038200000         0.009591300043
   60         15.366235600000        -0.002755138130
   61          7.391254080000        -0.022519810587
   62          3.530697220000        -0.040680378342
   63          1.678108190000        -0.004165760803
   64          0.683391650000         0.161521806203
   65          0.276466560000        -0.033443871012
   66          0.105540690000        -0.122690691972
   67          0.042216280000        -0.005463773409
   68     178109.355000000010         0.000001231925
   69      27138.037499999999         0.000005830297
   70       6512.317450000000         0.000033353448
   71       2033.629170000000         0.000115081287
   72        749.824546000000         0.000618542098
   73        308.463093000000         0.001503911779
   74        137.031449000000         0.006066524999
   75         64.114040700000         0.007048998709
   76         31.107038200000         0.019921360597
   77         15.366235600000        -0.020223618213
   78          7.391254080000        -0.003150585036
   79          3.530697220000        -0.123532079105
   80          1.678108190000         0.143209593310
   81          0.683391650000         0.133200355661
   82          0.276466560000        -0.310713910571
   83          0.105540690000         0.184676296255
   84          0.042216280000         0.019373178478
 P 82
    1     178109.355000000010         0.000000468494
    2      27138.037499999999         0.000002434897
    3       6512.317450000000         0.000011634377
    4       2033.629170000000         0.000051608398
    5        749.824546000000         0.000203445372
    6        308.463093000000         0.000675803222
    7        137.031449000000         0.001768540915
    8         64.114040700000         0.003337672934
    9         31.107038200000         0.003890186581
   10         15.366235600000         0.002098513369
   11          7.391254080000         0.000350525071
   12          3.530697220000         0.000013248864
   13          1.678108190000         0.000004689827
   14          0.683391650000        -0.000000739119
   15     178109.355000000010         0.000004820364
   16      27138.037499999999         0.000025074282
   17       6512.317450000000         0.000120184078
   18       2033.629170000000         0.000535023731
   19        749.824546000000         0.002133109460
   20        308.463093000000         0.007228771780
   21        137.031449000000         0.019700941262
   22         64.114040700000         0.039135978757
   23         31.107038200000         0.047609429389
   24         15.366235600000        -0.001064286092
   25          7.391254080000        -0.098921763488
   26          3.530697220000        -0.132591588147
   27          1.678108190000        -0.056011457898
   28          0.683391650000        -0.004339800902
   29          0.276466560000        -0.000038169736
   30          0.105540690000        -0.000122102788
   31          0.042216280000         0.000019166125
   32     178109.355000000010        -0.000003126249
   33      27138.037499999999        -0.000016224683
   34       6512.317450000000        -0.000078088936
   35       2033.629170000000        -0.000345985866
   36        749.824546000000        -0.001390098076
   37        308.463093000000        -0.004690787207
   38        137.031449000000        -0.012959153795
   39         64.114040700000        -0.025658822778
   40         31.107038200000        -0.032062690605
   41         15.366235600000         0.005516471864
   42          7.391254080000         0.078991461435
   43          3.530697220000         0.127657460255
   44          1.678108190000         0.022364679805
   45          0.683391650000        -0.249042746700
   46          0.276466560000        -0.335387605364
   47          0.105540690000        -0.123543934066
   48          0.042216280000        -0.000670455061
   49     178109.355000000010        -0.000003386551
   50      27138.037499999999        -0.000017449349
   51       6512.317450000000        -0.000085145936
   52       2033.629170000000        -0.000370132841
   53        749.824546000000        -0.001521761190
   54        308.463093000000        -0.005009932021
   55        137.031449000000        -0.014283319792
   56         64.114040700000        -0.027170772004
   57         31.107038200000        -0.036492753916
   58         15.366235600000         0.010482685071
   59          7.391254080000         0.085682848236
   60          3.530697220000         0.154779751372
   61          1.678108190000         0.015849789200
   62          0.683391650000        -0.614554387747
   63          0.276466560000         0.127246457658
   64          0.105540690000         0.466810673179
   65          0.042216280000         0.020788437186
   66     178109.355000000010        -0.000003853332
   67      27138.037499999999        -0.000018236563
   68       6512.317450000000        -0.000104326112
   69       2033.629170000000        -0.000359962284
   70        749.824546000000        -0.001934735280
   71        308.463093000000        -0.004704079455
   72        137.031449000000        -0.018975458538
   73         64.114040700000        -0.022048534005
   74         31.107038200000        -0.062311941692
   75         15.366235600000         0.063257372044
   76          7.391254080000         0.009854701947
   77          3.530697220000         0.386395481020
   78          1.678108190000        -0.447944696587
   79          0.683391650000        -0.416636843404
   80          0.276466560000         0.971880760075
   81          0.105540690000        -0.577648225799
   82          0.042216280000        -0.060597285102
 P 81
    1     178109.355000000010        -0.000000170394
    2      27138.037499999999        -0.000000885586
    3       6512.317450000000        -0.000004231490
    4       2033.629170000000        -0.000018770272
    5        749.824546000000        -0.000073994257
    6        308.463093000000        -0.000245793534
    7        137.031449000000        -0.000643228542
    8         64.114040700000        -0.001213930917
    9         31.107038200000        -0.001414883321
   10         15.366235600000        -0.000763241429
   11          7.391254080000        -0.000127487992
   12          3.530697220000        -0.000004818688
   13          1.678108190000        -0.000001705717
   14          0.683391650000         0.000000268822
   15     178109.355000000010        -0.000000449500
   16      27138.037499999999        -0.000002338183
   17       6512.317450000000        -0.000011207193
   18       2033.629170000000        -0.000049891086
   19        749.824546000000        -0.000198912947
   20        308.463093000000        -0.000674084627
[...]
  BAS[ATNO][ 10].a[ 45] =         0.105540690000;     BAS[ATNO][ 10].d[ 45] =        -0.052173039963;
  BAS[ATNO][ 10].a[ 46] =         0.042216280000;     BAS[ATNO][ 10].d[ 46] =        -0.000283135542;
  BAS[ATNO][ 10].a[ 47] =    178109.355000000010;     BAS[ATNO][ 10].d[ 47] =         0.000004531466;
  BAS[ATNO][ 10].a[ 48] =     27138.037499999999;     BAS[ATNO][ 10].d[ 48] =         0.000023348572;
  BAS[ATNO][ 10].a[ 49] =      6512.317450000000;     BAS[ATNO][ 10].d[ 49] =         0.000113931817;
  BAS[ATNO][ 10].a[ 50] =      2033.629170000000;     BAS[ATNO][ 10].d[ 50] =         0.000495266232;
  BAS[ATNO][ 10].a[ 51] =       749.824546000000;     BAS[ATNO][ 10].d[ 51] =         0.002036233612;
  BAS[ATNO][ 10].a[ 52] =       308.463093000000;     BAS[ATNO][ 10].d[ 52] =         0.006703674689;
  BAS[ATNO][ 10].a[ 53] =       137.031449000000;     BAS[ATNO][ 10].d[ 53] =         0.019112181354;
  BAS[ATNO][ 10].a[ 54] =        64.114040700000;     BAS[ATNO][ 10].d[ 54] =         0.036356584438;
  BAS[ATNO][ 10].a[ 55] =        31.107038200000;     BAS[ATNO][ 10].d[ 55] =         0.048830113806;
  BAS[ATNO][ 10].a[ 56] =        15.366235600000;     BAS[ATNO][ 10].d[ 56] =        -0.014026639541;
  BAS[ATNO][ 10].a[ 57] =         7.391254080000;     BAS[ATNO][ 10].d[ 57] =        -0.114650246463;
  BAS[ATNO][ 10].a[ 58] =         3.530697220000;     BAS[ATNO][ 10].d[ 58] =        -0.207107221661;
  BAS[ATNO][ 10].a[ 59] =         1.678108190000;     BAS[ATNO][ 10].d[ 59] =        -0.021208238003;
  BAS[ATNO][ 10].a[ 60] =         0.683391650000;     BAS[ATNO][ 10].d[ 60] =         0.822321076742;
  BAS[ATNO][ 10].a[ 61] =         0.276466560000;     BAS[ATNO][ 10].d[ 61] =        -0.170265555269;
  BAS[ATNO][ 10].a[ 62] =         0.105540690000;     BAS[ATNO][ 10].d[ 62] =        -0.624628613930;
  BAS[ATNO][ 10].a[ 63] =         0.042216280000;     BAS[ATNO][ 10].d[ 63] =        -0.027816529165;
  BAS[ATNO][ 10].a[ 64] =    178109.355000000010;     BAS[ATNO][ 10].d[ 64] =        -0.000004733425;
  BAS[ATNO][ 10].a[ 65] =     27138.037499999999;     BAS[ATNO][ 10].d[ 65] =        -0.000022401754;
  BAS[ATNO][ 10].a[ 66] =      6512.317450000000;     BAS[ATNO][ 10].d[ 66] =        -0.000128153965;
  BAS[ATNO][ 10].a[ 67] =      2033.629170000000;     BAS[ATNO][ 10].d[ 67] =        -0.000442176872;
  BAS[ATNO][ 10].a[ 68] =       749.824546000000;     BAS[ATNO][ 10].d[ 68] =        -0.002376624528;
  BAS[ATNO][ 10].a[ 69] =       308.463093000000;     BAS[ATNO][ 10].d[ 69] =        -0.005778480773;
  BAS[ATNO][ 10].a[ 70] =       137.031449000000;     BAS[ATNO][ 10].d[ 70] =        -0.023309411198;
  BAS[ATNO][ 10].a[ 71] =        64.114040700000;     BAS[ATNO][ 10].d[ 71] =        -0.027084370288;
  BAS[ATNO][ 10].a[ 72] =        31.107038200000;     BAS[ATNO][ 10].d[ 72] =        -0.076543851026;
  BAS[ATNO][ 10].a[ 73] =        15.366235600000;     BAS[ATNO][ 10].d[ 73] =         0.077705215574;
  BAS[ATNO][ 10].a[ 74] =         7.391254080000;     BAS[ATNO][ 10].d[ 74] =         0.012105494023;
  BAS[ATNO][ 10].a[ 75] =         3.530697220000;     BAS[ATNO][ 10].d[ 75] =         0.474647352225;
  BAS[ATNO][ 10].a[ 76] =         1.678108190000;     BAS[ATNO][ 10].d[ 76] =        -0.550254272170;
  BAS[ATNO][ 10].a[ 77] =         0.683391650000;     BAS[ATNO][ 10].d[ 77] =        -0.511795774730;
  BAS[ATNO][ 10].a[ 78] =         0.276466560000;     BAS[ATNO][ 10].d[ 78] =         1.193856170962;
  BAS[ATNO][ 10].a[ 79] =         0.105540690000;     BAS[ATNO][ 10].d[ 79] =        -0.709581799893;
  BAS[ATNO][ 10].a[ 80] =         0.042216280000;     BAS[ATNO][ 10].d[ 80] =        -0.074437570671;

  // Basis function  12 L = d
  InitBFNGauss(BAS[ATNO][ 11]);
  BAS[ATNO][ 11].l  = 2;
  BAS[ATNO][ 11].ng = 33;
  BAS[ATNO][ 11].a[  0] =       624.475513000000;     BAS[ATNO][ 11].d[  0] =         0.000630511352;
  BAS[ATNO][ 11].a[  1] =       265.735250000000;     BAS[ATNO][ 11].d[  1] =         0.002198523845;
  BAS[ATNO][ 11].a[  2] =       116.709586000000;     BAS[ATNO][ 11].d[  2] =         0.013147051907;
  BAS[ATNO][ 11].a[  3] =        50.306071000000;     BAS[ATNO][ 11].d[  3] =         0.050511874336;
  BAS[ATNO][ 11].a[  4] =        23.036081700000;     BAS[ATNO][ 11].d[  4] =         0.144375570833;
  BAS[ATNO][ 11].a[  5] =        10.586238100000;     BAS[ATNO][ 11].d[  5] =         0.292902044217;
  BAS[ATNO][ 11].a[  6] =         4.798113940000;     BAS[ATNO][ 11].d[  6] =         0.374177424293;
  BAS[ATNO][ 11].a[  7] =         2.133543170000;     BAS[ATNO][ 11].d[  7] =         0.282421225657;
  BAS[ATNO][ 11].a[  8] =         0.857316380000;     BAS[ATNO][ 11].d[  8] =         0.081001530958;
  BAS[ATNO][ 11].a[  9] =         0.342926550000;     BAS[ATNO][ 11].d[  9] =         0.000339629202;
  BAS[ATNO][ 11].a[ 10] =         0.137170620000;     BAS[ATNO][ 11].d[ 10] =         0.001606666967;
  BAS[ATNO][ 11].a[ 11] =       624.475513000000;     BAS[ATNO][ 11].d[ 11] =         0.000037109219;
  BAS[ATNO][ 11].a[ 12] =       265.735250000000;     BAS[ATNO][ 11].d[ 12] =         0.000144998728;
  BAS[ATNO][ 11].a[ 13] =       116.709586000000;     BAS[ATNO][ 11].d[ 13] =         0.000786828182;
  BAS[ATNO][ 11].a[ 14] =        50.306071000000;     BAS[ATNO][ 11].d[ 14] =         0.003214988839;
  BAS[ATNO][ 11].a[ 15] =        23.036081700000;     BAS[ATNO][ 11].d[ 15] =         0.008765733039;
  BAS[ATNO][ 11].a[ 16] =        10.586238100000;     BAS[ATNO][ 11].d[ 16] =         0.019494569439;
  BAS[ATNO][ 11].a[ 17] =         4.798113940000;     BAS[ATNO][ 11].d[ 17] =         0.022833688741;
  BAS[ATNO][ 11].a[ 18] =         2.133543170000;     BAS[ATNO][ 11].d[ 18] =         0.021433001530;
  BAS[ATNO][ 11].a[ 19] =         0.857316380000;     BAS[ATNO][ 11].d[ 19] =        -0.085700076322;
  BAS[ATNO][ 11].a[ 20] =         0.342926550000;     BAS[ATNO][ 11].d[ 20] =        -0.118188447581;
  BAS[ATNO][ 11].a[ 21] =         0.137170620000;     BAS[ATNO][ 11].d[ 21] =        -0.018506463849;
  BAS[ATNO][ 11].a[ 22] =       624.475513000000;     BAS[ATNO][ 11].d[ 22] =         0.000053362366;
  BAS[ATNO][ 11].a[ 23] =       265.735250000000;     BAS[ATNO][ 11].d[ 23] =         0.000075903397;
  BAS[ATNO][ 11].a[ 24] =       116.709586000000;     BAS[ATNO][ 11].d[ 24] =         0.001011779167;
  BAS[ATNO][ 11].a[ 25] =        50.306071000000;     BAS[ATNO][ 11].d[ 25] =         0.002542080784;
  BAS[ATNO][ 11].a[ 26] =        23.036081700000;     BAS[ATNO][ 11].d[ 26] =         0.010626268625;
  BAS[ATNO][ 11].a[ 27] =        10.586238100000;     BAS[ATNO][ 11].d[ 27] =         0.017682592780;
  BAS[ATNO][ 11].a[ 28] =         4.798113940000;     BAS[ATNO][ 11].d[ 28] =         0.037933107045;
  BAS[ATNO][ 11].a[ 29] =         2.133543170000;     BAS[ATNO][ 11].d[ 29] =         0.017575545772;
  BAS[ATNO][ 11].a[ 30] =         0.857316380000;     BAS[ATNO][ 11].d[ 30] =        -0.226020502761;
  BAS[ATNO][ 11].a[ 31] =         0.342926550000;     BAS[ATNO][ 11].d[ 31] =         0.139510448663;
  BAS[ATNO][ 11].a[ 32] =         0.137170620000;     BAS[ATNO][ 11].d[ 32] =         0.075598404302;

  // Basis function  13 L = d
  InitBFNGauss(BAS[ATNO][ 12]);
  BAS[ATNO][ 12].l  = 2;
  BAS[ATNO][ 12].ng = 33;
  BAS[ATNO][ 12].a[  0] =       624.475513000000;     BAS[ATNO][ 12].d[  0] =         0.000173802381;
  BAS[ATNO][ 12].a[  1] =       265.735250000000;     BAS[ATNO][ 12].d[  1] =         0.000606029816;
  BAS[ATNO][ 12].a[  2] =       116.709586000000;     BAS[ATNO][ 12].d[  2] =         0.003624025033;
  BAS[ATNO][ 12].a[  3] =        50.306071000000;     BAS[ATNO][ 12].d[  3] =         0.013923752514;
  BAS[ATNO][ 12].a[  4] =        23.036081700000;     BAS[ATNO][ 12].d[  4] =         0.039797567281;
  BAS[ATNO][ 12].a[  5] =        10.586238100000;     BAS[ATNO][ 12].d[  5] =         0.080739343534;
  BAS[ATNO][ 12].a[  6] =         4.798113940000;     BAS[ATNO][ 12].d[  6] =         0.103143150412;
  BAS[ATNO][ 12].a[  7] =         2.133543170000;     BAS[ATNO][ 12].d[  7] =         0.077850273871;
  BAS[ATNO][ 12].a[  8] =         0.857316380000;     BAS[ATNO][ 12].d[  8] =         0.022328319532;
  BAS[ATNO][ 12].a[  9] =         0.342926550000;     BAS[ATNO][ 12].d[  9] =         0.000093619827;
  BAS[ATNO][ 12].a[ 10] =         0.137170620000;     BAS[ATNO][ 12].d[ 10] =         0.000442882659;
  BAS[ATNO][ 12].a[ 11] =       624.475513000000;     BAS[ATNO][ 12].d[ 11] =        -0.000141137686;
  BAS[ATNO][ 12].a[ 12] =       265.735250000000;     BAS[ATNO][ 12].d[ 12] =        -0.000551474419;
  BAS[ATNO][ 12].a[ 13] =       116.709586000000;     BAS[ATNO][ 12].d[ 13] =        -0.002992547733;
  BAS[ATNO][ 12].a[ 14] =        50.306071000000;     BAS[ATNO][ 12].d[ 14] =        -0.012227583838;
  BAS[ATNO][ 12].a[ 15] =        23.036081700000;     BAS[ATNO][ 12].d[ 15] =        -0.033338758241;
  BAS[ATNO][ 12].a[ 16] =        10.586238100000;     BAS[ATNO][ 12].d[ 16] =        -0.074143797745;
  BAS[ATNO][ 12].a[ 17] =         4.798113940000;     BAS[ATNO][ 12].d[ 17] =        -0.086843487622;
  BAS[ATNO][ 12].a[ 18] =         2.133543170000;     BAS[ATNO][ 12].d[ 18] =        -0.081516246639;
  BAS[ATNO][ 12].a[ 19] =         0.857316380000;     BAS[ATNO][ 12].d[ 19] =         0.325943547792;
  BAS[ATNO][ 12].a[ 20] =         0.342926550000;     BAS[ATNO][ 12].d[ 20] =         0.449506739848;
  BAS[ATNO][ 12].a[ 21] =         0.137170620000;     BAS[ATNO][ 12].d[ 21] =         0.070385730596;
  BAS[ATNO][ 12].a[ 22] =       624.475513000000;     BAS[ATNO][ 12].d[ 22] =        -0.000182067945;
  BAS[ATNO][ 12].a[ 23] =       265.735250000000;     BAS[ATNO][ 12].d[ 23] =        -0.000258976063;
  BAS[ATNO][ 12].a[ 24] =       116.709586000000;     BAS[ATNO][ 12].d[ 24] =        -0.003452106193;
  BAS[ATNO][ 12].a[ 25] =        50.306071000000;     BAS[ATNO][ 12].d[ 25] =        -0.008673367766;
  BAS[ATNO][ 12].a[ 26] =        23.036081700000;     BAS[ATNO][ 12].d[ 26] =        -0.036255942902;
  BAS[ATNO][ 12].a[ 27] =        10.586238100000;     BAS[ATNO][ 12].d[ 27] =        -0.060331532810;
  BAS[ATNO][ 12].a[ 28] =         4.798113940000;     BAS[ATNO][ 12].d[ 28] =        -0.129424599704;
  BAS[ATNO][ 12].a[ 29] =         2.133543170000;     BAS[ATNO][ 12].d[ 29] =        -0.059966297341;
  BAS[ATNO][ 12].a[ 30] =         0.857316380000;     BAS[ATNO][ 12].d[ 30] =         0.771163117756;
  BAS[ATNO][ 12].a[ 31] =         0.342926550000;     BAS[ATNO][ 12].d[ 31] =        -0.475998023350;
  BAS[ATNO][ 12].a[ 32] =         0.137170620000;     BAS[ATNO][ 12].d[ 32] =        -0.257935454736;

  // Basis function  14 L = d
  InitBFNGauss(BAS[ATNO][ 13]);
  BAS[ATNO][ 13].l  = 2;
  BAS[ATNO][ 13].ng = 33;
  BAS[ATNO][ 13].a[  0] =       624.475513000000;     BAS[ATNO][ 13].d[  0] =         0.000009049446;
  BAS[ATNO][ 13].a[  1] =       265.735250000000;     BAS[ATNO][ 13].d[  1] =         0.000031554426;
  BAS[ATNO][ 13].a[  2] =       116.709586000000;     BAS[ATNO][ 13].d[  2] =         0.000188693733;
  BAS[ATNO][ 13].a[  3] =        50.306071000000;     BAS[ATNO][ 13].d[  3] =         0.000724974254;
  BAS[ATNO][ 13].a[  4] =        23.036081700000;     BAS[ATNO][ 13].d[  4] =         0.002072157748;
  BAS[ATNO][ 13].a[  5] =        10.586238100000;     BAS[ATNO][ 13].d[  5] =         0.004203891537;
  BAS[ATNO][ 13].a[  6] =         4.798113940000;     BAS[ATNO][ 13].d[  6] =         0.005370400577;
  BAS[ATNO][ 13].a[  7] =         2.133543170000;     BAS[ATNO][ 13].d[  7] =         0.004053465054;
  BAS[ATNO][ 13].a[  8] =         0.857316380000;     BAS[ATNO][ 13].d[  8] =         0.001162578607;
  BAS[ATNO][ 13].a[  9] =         0.342926550000;     BAS[ATNO][ 13].d[  9] =         0.000004874545;
  BAS[ATNO][ 13].a[ 10] =         0.137170620000;     BAS[ATNO][ 13].d[ 10] =         0.000023059770;
  BAS[ATNO][ 13].a[ 11] =       624.475513000000;     BAS[ATNO][ 13].d[ 11] =         0.000125121671;
  BAS[ATNO][ 13].a[ 12] =       265.735250000000;     BAS[ATNO][ 13].d[ 12] =         0.000488894231;
  BAS[ATNO][ 13].a[ 13] =       116.709586000000;     BAS[ATNO][ 13].d[ 13] =         0.002652959543;
  BAS[ATNO][ 13].a[ 14] =        50.306071000000;     BAS[ATNO][ 13].d[ 14] =         0.010840022658;
  BAS[ATNO][ 13].a[ 15] =        23.036081700000;     BAS[ATNO][ 13].d[ 15] =         0.029555544212;
  BAS[ATNO][ 13].a[ 16] =        10.586238100000;     BAS[ATNO][ 13].d[ 16] =         0.065730111375;
  BAS[ATNO][ 13].a[ 17] =         4.798113940000;     BAS[ATNO][ 13].d[ 17] =         0.076988666445;
  BAS[ATNO][ 13].a[ 18] =         2.133543170000;     BAS[ATNO][ 13].d[ 18] =         0.072265949862;
  BAS[ATNO][ 13].a[ 19] =         0.857316380000;     BAS[ATNO][ 13].d[ 19] =        -0.288956141308;
  BAS[ATNO][ 13].a[ 20] =         0.342926550000;     BAS[ATNO][ 13].d[ 20] =        -0.398497635307;
  BAS[ATNO][ 13].a[ 21] =         0.137170620000;     BAS[ATNO][ 13].d[ 21] =        -0.062398501992;
  BAS[ATNO][ 13].a[ 22] =       624.475513000000;     BAS[ATNO][ 13].d[ 22] =        -0.000221199767;
  BAS[ATNO][ 13].a[ 23] =       265.735250000000;     BAS[ATNO][ 13].d[ 23] =        -0.000314637730;
  BAS[ATNO][ 13].a[ 24] =       116.709586000000;     BAS[ATNO][ 13].d[ 24] =        -0.004194066591;
  BAS[ATNO][ 13].a[ 25] =        50.306071000000;     BAS[ATNO][ 13].d[ 25] =        -0.010537532726;
  BAS[ATNO][ 13].a[ 26] =        23.036081700000;     BAS[ATNO][ 13].d[ 26] =        -0.044048424460;
  BAS[ATNO][ 13].a[ 27] =        10.586238100000;     BAS[ATNO][ 13].d[ 27] =        -0.073298575429;
  BAS[ATNO][ 13].a[ 28] =         4.798113940000;     BAS[ATNO][ 13].d[ 28] =        -0.157241799469;
  BAS[ATNO][ 13].a[ 29] =         2.133543170000;     BAS[ATNO][ 13].d[ 29] =        -0.072854839984;
  BAS[ATNO][ 13].a[ 30] =         0.857316380000;     BAS[ATNO][ 13].d[ 30] =         0.936909031186;
  BAS[ATNO][ 13].a[ 31] =         0.342926550000;     BAS[ATNO][ 13].d[ 31] =        -0.578304170200;
  BAS[ATNO][ 13].a[ 32] =         0.137170620000;     BAS[ATNO][ 13].d[ 32] =        -0.313373463332;

  // Basis function  15 L = f
  InitBFNGauss(BAS[ATNO][ 14]);
  BAS[ATNO][ 14].l  = 3;
  BAS[ATNO][ 14].ng = 8;
  BAS[ATNO][ 14].a[  0] =         1.688892000000;     BAS[ATNO][ 14].d[  0] =        -0.080616461124;
  BAS[ATNO][ 14].a[  1] =         0.675557000000;     BAS[ATNO][ 14].d[  1] =        -0.604784137231;
  BAS[ATNO][ 14].a[  2] =         0.270223000000;     BAS[ATNO][ 14].d[  2] =        -0.199744701999;
  BAS[ATNO][ 14].a[  3] =         0.108089000000;     BAS[ATNO][ 14].d[  3] =        -0.003511048489;
  BAS[ATNO][ 14].a[  4] =         1.688892000000;     BAS[ATNO][ 14].d[  4] =        -0.277150265089;
  BAS[ATNO][ 14].a[  5] =         0.675557000000;     BAS[ATNO][ 14].d[  5] =        -0.322041149264;
  BAS[ATNO][ 14].a[  6] =         0.270223000000;     BAS[ATNO][ 14].d[  6] =         0.676268832857;
  BAS[ATNO][ 14].a[  7] =         0.108089000000;     BAS[ATNO][ 14].d[  7] =        -0.059952511271;

  // Basis function  16 L = f
  InitBFNGauss(BAS[ATNO][ 15]);
  BAS[ATNO][ 15].l  = 3;
  BAS[ATNO][ 15].ng = 8;
  BAS[ATNO][ 15].a[  0] =         1.688892000000;     BAS[ATNO][ 15].d[  0] =         0.061155122434;
  BAS[ATNO][ 15].a[  1] =         0.675557000000;     BAS[ATNO][ 15].d[  1] =         0.458785308144;
  BAS[ATNO][ 15].a[  2] =         0.270223000000;     BAS[ATNO][ 15].d[  2] =         0.151525030197;
  BAS[ATNO][ 15].a[  3] =         0.108089000000;     BAS[ATNO][ 15].d[  3] =         0.002663458520;
  BAS[ATNO][ 15].a[  4] =         1.688892000000;     BAS[ATNO][ 15].d[  4] =        -0.365347542208;
  BAS[ATNO][ 15].a[  5] =         0.675557000000;     BAS[ATNO][ 15].d[  5] =        -0.424524011679;
  BAS[ATNO][ 15].a[  6] =         0.270223000000;     BAS[ATNO][ 15].d[  6] =         0.891477249270;
  BAS[ATNO][ 15].a[  7] =         0.108089000000;     BAS[ATNO][ 15].d[  7] =        -0.079031144477;

  // Basis function  17 L = g
  InitBFNGauss(BAS[ATNO][ 16]);
  BAS[ATNO][ 16].l  = 4;
  BAS[ATNO][ 16].ng = 2;
  BAS[ATNO][ 16].a[  0] =         0.844446000000;     BAS[ATNO][ 16].d[  0] =         0.778246217280;
  BAS[ATNO][ 16].a[  1] =         0.337778000000;     BAS[ATNO][ 16].d[  1] =         0.324482678866;

-------
TIMINGS
-------

Total SCF time: 0 days 0 hours 0 min 48 sec 

Total time                  ....      48.000 sec
Sum of individual times     ....      47.634 sec  ( 99.2%)

Fock matrix formation       ....      46.891 sec  ( 97.7%)
  XC integration            ....       0.062 sec  (  0.1% of F)
    Basis function eval.    ....       0.029 sec  ( 47.4% of XC)
    Density eval.           ....       0.003 sec  (  4.3% of XC)
    XC-Functional eval.     ....       0.003 sec  (  4.3% of XC)
    XC-Potential eval.      ....       0.005 sec  (  7.8% of XC)
Diagonalization             ....       0.002 sec  (  0.0%)
Density matrix formation    ....       0.001 sec  (  0.0%)
Population analysis         ....       0.001 sec  (  0.0%)
Initial guess               ....       0.081 sec  (  0.2%)
Orbital Transformation      ....       0.000 sec  (  0.0%)
Orbital Orthonormalization  ....       0.000 sec  (  0.0%)
DIIS solution               ....       0.000 sec  (  0.0%)
SOSCF solution              ....       0.001 sec  (  0.0%)
Grid generation             ....       0.658 sec  (  1.4%)

-------------------------   --------------------
FINAL SINGLE POINT ENERGY     -1253.892677200487
-------------------------   --------------------


                            ***************************************
                            *     ORCA property calculations      *
                            ***************************************

                                    ---------------------
                                    Active property flags
                                    ---------------------
   (+) Dipole Moment


------------------------------------------------------------------------------
                       ORCA ELECTRIC PROPERTIES CALCULATION
------------------------------------------------------------------------------

Dipole Moment Calculation                       ... on
Quadrupole Moment Calculation                   ... off
Polarizability Calculation                      ... off
GBWName                                         ... Kr_ano-rcc-tzp_548.143956_.gbw
Electron density file                           ... Kr_ano-rcc-tzp_548.143956_.scfp
The origin for moment calculation is the CENTER OF MASS  = ( 0.000000,  0.000000  0.000000)

-------------
DIPOLE MOMENT
-------------
                                X             Y             Z
Electronic contribution:      0.00000       0.00000       0.00000
Nuclear contribution   :      0.00000       0.00000       0.00000
                        -----------------------------------------
Total Dipole Moment    :      0.00000       0.00000       0.00000
                        -----------------------------------------
Magnitude (a.u.)       :      0.00000
Magnitude (Debye)      :      0.00000



--------------------
Rotational spectrum 
--------------------
 
Rotational constants in cm-1:     0.000000     0.000000     0.000000 
Rotational constants in MHz :     0.000000     0.000000     0.000000 

 Dipole components along the rotational axes: 
x,y,z [a.u.] :     0.000000     0.000000     0.000000 
x,y,z [Debye]:     0.000000     0.000000     0.000000 

 

Timings for individual modules:

Sum of individual times         ...       49.570 sec (=   0.826 min)
GTO integral calculation        ...        0.760 sec (=   0.013 min)   1.5 %
Relativistic integrals          ...        0.482 sec (=   0.008 min)   1.0 %
SCF iterations                  ...       48.328 sec (=   0.805 min)  97.5 %
                             ****ORCA TERMINATED NORMALLY****
TOTAL RUN TIME: 0 days 0 hours 0 minutes 49 seconds 989 msec
