
                                 *****************
                                 * O   R   C   A *
                                 *****************

           --- An Ab Initio, DFT and Semiempirical electronic structure package ---

                  #######################################################
                  #                        -***-                        #
                  #          Department of theory and spectroscopy      #
                  #               Directorship: Frank Neese             #
                  #        Max Planck Institute fuer Kohlenforschung    #
                  #                Kaiser Wilhelm Platz 1               #
                  #                 D-45470 Muelheim/Ruhr               #
                  #                      Germany                        #
                  #                                                     #
                  #                  All rights reserved                #
                  #                        -***-                        #
                  #######################################################


                         Program Version 4.2.1 -  RELEASE  -


 With contributions from (in alphabetic order):
   Daniel Aravena         : Magnetic Suceptibility
   Michael Atanasov       : Ab Initio Ligand Field Theory (pilot matlab implementation)
   Alexander A. Auer      : GIAO ZORA, VPT2
   Ute Becker             : Parallelization
   Giovanni Bistoni       : ED, misc. LED, open-shell LED, HFLD
   Martin Brehm           : Molecular dynamics
   Dmytro Bykov           : SCF Hessian
   Vijay G. Chilkuri      : MRCI spin determinant printing, contributions to CSF-ICE
   Dipayan Datta          : RHF DLPNO-CCSD density
   Achintya Kumar Dutta   : EOM-CC, STEOM-CC
   Dmitry Ganyushin       : Spin-Orbit,Spin-Spin,Magnetic field MRCI
   Miquel Garcia          : C-PCM Hessian, Gaussian charge scheme
   Yang Guo               : DLPNO-NEVPT2, CIM, IAO-localization
   Andreas Hansen         : Spin unrestricted coupled pair/coupled cluster methods
   Benjamin Helmich-Paris : CASSCF linear response (MC-RPA)
   Lee Huntington         : MR-EOM, pCC
   Robert Izsak           : Overlap fitted RIJCOSX, COSX-SCS-MP3, EOM
   Christian Kollmar      : KDIIS, OOCD, Brueckner-CCSD(T), CCSD density
   Simone Kossmann        : Meta GGA functionals, TD-DFT gradient, OOMP2, MP2 Hessian
   Martin Krupicka        : AUTO-CI
   Lucas Lang             : DCDCAS
   Dagmar Lenk            : GEPOL surface, SMD
   Dimitrios Liakos       : Extrapolation schemes; Compound Job, initial MDCI parallelization
   Dimitrios Manganas     : Further ROCIS development; embedding schemes
   Dimitrios Pantazis     : SARC Basis sets
   Taras Petrenko         : DFT Hessian,TD-DFT gradient, ASA, ECA, R-Raman, ABS, FL, XAS/XES, NRVS
   Peter Pinski           : DLPNO-MP2, DLPNO-MP2 Gradient
   Christoph Reimann      : Effective Core Potentials
   Marius Retegan         : Local ZFS, SOC
   Christoph Riplinger    : Optimizer, TS searches, QM/MM, DLPNO-CCSD(T), (RO)-DLPNO pert. Triples
   Tobias Risthaus        : Range-separated hybrids, TD-DFT gradient, RPA, STAB
   Michael Roemelt        : Original ROCIS implementation
   Masaaki Saitow         : Open-shell DLPNO-CCSD energy and density
   Barbara Sandhoefer     : DKH picture change effects
   Avijit Sen             : IP-ROCIS
   Kantharuban Sivalingam : CASSCF convergence, NEVPT2, FIC-MRCI
   Bernardo de Souza      : ESD, SOC TD-DFT
   Georgi Stoychev        : AutoAux, RI-MP2 NMR
   Willem Van den Heuvel  : Paramagnetic NMR
   Boris Wezisla          : Elementary symmetry handling
   Frank Wennmohs         : Technical directorship


 We gratefully acknowledge several colleagues who have allowed us to
 interface, adapt or use parts of their codes:
   Stefan Grimme, W. Hujo, H. Kruse,             : VdW corrections, initial TS optimization,
                  C. Bannwarth                     DFT functionals, gCP, sTDA/sTD-DF
   Ed Valeev, F. Pavosevic, A. Kumar             : LibInt (2-el integral package), F12 methods
   Garnet Chan, S. Sharma, J. Yang, R. Olivares  : DMRG
   Ulf Ekstrom                                   : XCFun DFT Library
   Mihaly Kallay                                 : mrcc  (arbitrary order and MRCC methods)
   Andreas Klamt, Michael Diedenhofen            : otool_cosmo (COSMO solvation model)
   Jiri Pittner, Ondrej Demel                    : Mk-CCSD
   Frank Weinhold                                : gennbo (NPA and NBO analysis)
   Christopher J. Cramer and Donald G. Truhlar   : smd solvation model
   Lars Goerigk                                  : TD-DFT with DH, B97 family of functionals
   V. Asgeirsson, H. Jonsson                     : NEB implementation
   FAccTs GmbH                                   : IRC, NEB, NEB-TS, Multilevel, MM, QM/MM, CI optimization
   S Lehtola, MJT Oliveira, MAL Marques          : LibXC Library


 Your calculation uses the libint2 library for the computation of 2-el integrals
 For citations please refer to: http://libint.valeyev.net

 Your ORCA version has been built with support for libXC version: 4.2.3
 For citations please refer to: https://tddft.org/programs/libxc/

 This ORCA versions uses:
   CBLAS   interface :  Fast vector & matrix operations
   LAPACKE interface :  Fast linear algebra routines
   SCALAPACK package :  Parallel linear algebra routines


----- Orbital basis set information -----
Your calculation utilizes the basis: ANO-RCC-QZP
   H, He:       P.-O. Widmark, P.-A. Malmqvist, and B. O. Roos, Theor. Chim. Acta 77, 291 (1990).
   s block:     B. O. Roos, V. Veryazov and P.-O. Widmark, Theor. Chem. Acc. 111, 345 (2004).
   p block:     B. O. Roos, R. Lindh, P.-A. Malmqvist, V. Veryazov, and P.-O. Widmark, J. Phys. Chem. A 108, 2851 (2004).
   d block:     B. O. Roos, R. Lindh, P.-A. Malmqvist, V. Veryazov, and P.-O. Widmark, J. Phys. Chem. A 109, 6575 (2005).
   actinides:   B. O. Roos, R. Lindh, P.-A. Malmqvist, V. Veryazov, and P.-O. Widmark, Chem. Phys. Letters 409, 295 (2005).
   lanthanides: B. O. Roos, R. Lindh, P.-A. Malmqvist, V. Veryazov, P.-O. Widmark and A. C. Borin, J. Phys. Chem. A 112, 11431 (2008).

================================================================================
                                        WARNINGS
                       Please study these warnings very carefully!
================================================================================


INFO   : the flag for use of LIBINT has been found!

================================================================================
                                       INPUT FILE
================================================================================
NAME = Kr_ano-rcc-qzp_1096.287912_.inp
|  1> ! LDA ano-rcc-qzp nori grid5 finalgrid6 verytightscf
|  2> %Pal NProcs 18 End
|  3> 
|  4> % REL
|  5>   Method ZORA
|  6>   ModelPot 1, 0, 0, 0
|  7>   velit 1096.287912
|  8> END
|  9> 
| 10> *xyz 34 1
| 11> Kr 0.0 0.0 0.0
| 12> **                         ****END OF INPUT****
================================================================================

                       ****************************
                       * Single Point Calculation *
                       ****************************

---------------------------------
CARTESIAN COORDINATES (ANGSTROEM)
---------------------------------
  Kr     0.000000    0.000000    0.000000

----------------------------
CARTESIAN COORDINATES (A.U.)
----------------------------
  NO LB      ZA    FRAG     MASS         X           Y           Z
   0 Kr   36.0000    0    83.800    0.000000    0.000000    0.000000

--------------------------------
INTERNAL COORDINATES (ANGSTROEM)
--------------------------------
 Kr     0   0   0     0.000000000000     0.00000000     0.00000000

---------------------------
INTERNAL COORDINATES (A.U.)
---------------------------
 Kr     0   0   0     0.000000000000     0.00000000     0.00000000

---------------------
BASIS SET INFORMATION
---------------------
There are 1 groups of distinct atoms

 Group   1 Type Kr  : 140s102p44d12f4g contracted to 7s6p4d3f2g pattern {20202020202020/171717171717/11111111/444/22}

Atom   0Kr   basis set group =>   1


           ************************************************************
           *        Program running with 18 parallel MPI-processes    *
           *              working on a common directory               *
           ************************************************************


------------------------------------------------------------------------------
                       ORCA GTO INTEGRAL CALCULATION
                     -- ANO INTEGRAL GENERATION BRANCH --
------------------------------------------------------------------------------


Gathering ANO information                         ... done
Calculation Information:
Number of atoms                                   ... 1
Number of basis functions                         ... 84
Highest angular momentum                          ... 4
Number of primitive shells                        ... 54
Total number of shells                            ... 22
Maximum number of shells                          ... 22

Getting memory                                    ... done
Making prescreening integrals                     ... done
Gathering atom contracted prescreening            ... done
Making one-electron integrals                     ... done

Timings:

Total time                                        ...    0.6 sec
Prescreening matrix                               ...    0.5 sec
One-electron matrix                               ...    0.0 sec
Two-index integrals + Cholesky                    ...    0.0 sec


           ************************************************************
           *        Program running with 18 parallel MPI-processes    *
           *              working on a common directory               *
           ************************************************************
------------------------------------------------------------------------------
                          ORCA RELATIVISTIC HAMILTONIAN
------------------------------------------------------------------------------

Relativistic Method            ... ZORA(MP)
Treatment of potential         ... Van Wuellen
Nucleus model                  ... Point Nucleus
Speed of light used            ... 1096.28791200000001


            *************************************************
            *         ZERO ORDER REGULAR APPROXIMATION      *
            *                     ZORA(MP)                  *
            *            Programmed by FN according to      *
            *                   C. van Wuellen              *
            *       J. Chem. Phys. (1998) vol 109, 392-399  *
            *************************************************

Terms included in model potential: +V(e,N)
Basis function cutoff value   ... 1.000000e-12
Loading the fitted atomic densities  (DKH4)  ... done
Calculating the cutoffs                      ... done
Number of fit functions                      ... 27
Setting up the integration grid ... done


           ************************************************************
           *        Program running with 18 parallel MPI-processes    *
           *              working on a common directory               *
           ************************************************************
-------------------------------------------------------------------------------
                                 ORCA SCF
-------------------------------------------------------------------------------

------------
SCF SETTINGS
------------
Hamiltonian:
 Density Functional     Method          .... DFT(GTOs)
 Exchange Functional    Exchange        .... Slater
   X-Alpha parameter    XAlpha          ....  0.666667
 Correlation Functional Correlation     .... VWN-5
 Gradients option       PostSCFGGA      .... off
   Density functional embedding theory  .... OFF

Relativistic Settings:
 Scalar relativistic method             .... ZORA
 Speed of light used       Velit        ....       1096.28791
Orbital energies will be scaled


General Settings:
 Integral files         IntName         .... Kr_ano-rcc-qzp_1096.287912_
 Hartree-Fock type      HFTyp           .... RHF
 Total Charge           Charge          ....   34
 Multiplicity           Mult            ....    1
 Number of Electrons    NEL             ....    2
 Basis Dimension        Dim             ....   84
 Nuclear Repulsion      ENuc            ....      0.0000000000 Eh

Convergence Acceleration:
 DIIS                   CNVDIIS         .... on
   Start iteration      DIISMaxIt       ....    12
   Startup error        DIISStart       ....  0.200000
   # of expansion vecs  DIISMaxEq       ....     5
   Bias factor          DIISBfac        ....   1.050
   Max. coefficient     DIISMaxC        ....  10.000
 Newton-Raphson         CNVNR           .... off
 SOSCF                  CNVSOSCF        .... on
   Start iteration      SOSCFMaxIt      ....   150
   Startup grad/error   SOSCFStart      ....  0.003300
 Level Shifting         CNVShift        .... on
   Level shift para.    LevelShift      ....    0.2500
   Turn off err/grad.   ShiftErr        ....    0.0010
 Zerner damping         CNVZerner       .... off
 Static damping         CNVDamp         .... on
   Fraction old density DampFac         ....    0.7000
   Max. Damping (<1)    DampMax         ....    0.9800
   Min. Damping (>=0)   DampMin         ....    0.0000
   Turn off err/grad.   DampErr         ....    0.1000
 Fernandez-Rico         CNVRico         .... off

SCF Procedure:
 Maximum # iterations   MaxIter         ....   125
 SCF integral mode      SCFMode         .... Direct
   Integral package                     .... LIBINT
 Reset frequency        DirectResetFreq ....    20
 Integral Threshold     Thresh          ....  1.000e-12 Eh
 Primitive CutOff       TCut            ....  1.000e-14 Eh

Convergence Tolerance:
 Convergence Check Mode ConvCheckMode   .... Total+1el-Energy
 Convergence forced     ConvForced      .... 0
 Energy Change          TolE            ....  1.000e-09 Eh
 1-El. energy change                    ....  1.000e-06 Eh
 Orbital Gradient       TolG            ....  2.000e-06
 Orbital Rotation angle TolX            ....  2.000e-06
 DIIS Error             TolErr          ....  1.000e-08


Diagonalization of the overlap matrix:
Smallest eigenvalue                        ... 1.000e+00
Time for diagonalization                   ...    0.002 sec
Threshold for overlap eigenvalues          ... 1.000e-08
Number of eigenvalues below threshold      ... 0
Time for construction of square roots      ...    0.001 sec
Total time needed                          ...    0.003 sec

-------------------
DFT GRID GENERATION
-------------------

General Integration Accuracy     IntAcc      ...  5.010
Radial Grid Type                 RadialGrid  ... Gauss-Chebyshev
Angular Grid (max. acc.)         AngularGrid ... Lebedev-434
Angular grid pruning method      GridPruning ... 3 (G Style)
Weight generation scheme         WeightScheme... Becke
Basis function cutoff            BFCut       ...    1.0000e-12
Integration weight cutoff        WCut        ...    1.0000e-14
Grids for H and He will be reduced by one unit

# of grid points (after initial pruning)     ...  16106 (   0.0 sec)
# of grid points (after weights+screening)   ...  16106 (   0.0 sec)
Grid point division into batches done        ...    0.2 sec
Reduced shell lists constructed in    0.2 sec

Total number of grid points                  ...    16106
Total number of batches                      ...      252
Average number of points per batch           ...       63
Average number of grid points per atom       ...    16106
Average number of shells per batch           ...    16.53 (75.15%)
Average number of basis functions per batch  ...    57.07 (67.94%)
Average number of large shells per batch     ...     7.73 (46.77%)
Average number of large basis fcns per batch ...    25.33 (44.39%)
Maximum spatial batch extension              ...  17.34, 17.34, 17.34 au
Average spatial batch extension              ...   0.86,  0.87,  0.87 au

Time for grid setup =    0.259 sec

------------------------------
INITIAL GUESS: MODEL POTENTIAL
------------------------------
Loading ZORA relativistic densities                ... done
Calculating cut-offs                               ... done
Setting up the integral package                    ... done
Initializing the effective Hamiltonian             ... done
Starting the Coulomb interaction                   ... done (   0.0 sec)
Reading the grid                                   ... done
Mapping shells                                     ... done
Starting the XC term evaluation                    ... done (   0.0 sec)
  promolecular density results
     # of electrons  =     36.000000565
     EX              =    -91.042004939
     EC              =     -3.295965580
     EX+EC           =    -94.337970520
Transforming the Hamiltonian                       ... done (   0.0 sec)
Diagonalizing the Hamiltonian                      ... done (   0.0 sec)
Back transforming the eigenvectors                 ... done (   0.0 sec)
Now organizing SCF variables                       ... done
                      ------------------
                      INITIAL GUESS DONE (   0.3 sec)
                      ------------------
--------------
SCF ITERATIONS
--------------
ITER       Energy         Delta-E        Max-DP      RMS-DP      [F,P]     Damp
               ***  Starting incremental Fock matrix formation  ***
  0  -1250.3612785049   0.000000000000 0.00454054  0.00005851  6.9165869 0.7000
  1  -1250.3803355522  -0.019057047361 0.00317337  0.00004089  4.8311392 0.7000
  2  -1250.3936374886  -0.013301936402 0.00221614  0.00002856  3.3737571 0.7000
                      *** Initiating the SOSCF procedure ***
                      *** Re-Reading the Fockian *** 
                      *** Removing any level shift *** 
ITER      Energy       Delta-E        Grad      Rot      Max-DP    RMS-DP
  3  -1250.40293037  -0.0092928797  0.002849  0.002849  0.005159  0.000066
               *** Restarting incremental Fock matrix formation ***
  4  -1250.42455512  -0.0216247470  0.006602  0.000014  0.000028  0.000000
  5  -1250.42455534  -0.0000002207  0.000035  0.000000  0.000000  0.000000
                 **** Energy Check signals convergence ****
              ***Rediagonalizing the Fockian in SOSCF/NRSCF***

               *****************************************************
               *                     SUCCESS                       *
               *           SCF CONVERGED AFTER   6 CYCLES          *
               *****************************************************

Setting up the final grid:

General Integration Accuracy     IntAcc      ...  5.340
Radial Grid Type                 RadialGrid  ... Gauss-Chebyshev
Angular Grid (max. acc.)         AngularGrid ... Lebedev-590
Angular grid pruning method      GridPruning ... 3 (G Style)
Weight generation scheme         WeightScheme... Becke
Basis function cutoff            BFCut       ...    1.0000e-12
Integration weight cutoff        WCut        ...    1.0000e-14
Grids for H and He will be reduced by one unit

# of grid points (after initial pruning)     ...  24180 (   0.0 sec)
# of grid points (after weights+screening)   ...  24180 (   0.0 sec)
Grid point division into batches done        ...    0.4 sec
Reduced shell lists constructed in    0.4 sec

Total number of grid points                  ...    24180
Total number of batches                      ...      378
Average number of points per batch           ...       63
Average number of grid points per atom       ...    24180
Average number of shells per batch           ...    14.18 (64.46%)
Average number of basis functions per batch  ...    46.64 (55.52%)
Average number of large shells per batch     ...     5.73 (40.38%)
Average number of large basis fcns per batch ...    15.27 (32.75%)
Maximum spatial batch extension              ...  17.58, 17.58, 17.58 au
Average spatial batch extension              ...   0.77,  0.77,  0.77 au

Final grid set up in    0.5 sec
Final integration                            ... done (   0.0 sec)
Change in XC energy                          ...    -0.000014959
Integrated number of electrons               ...     2.000000075
Previous integrated no of electrons          ...     1.999999431

----------------
TOTAL SCF ENERGY
----------------

Total Energy       :        -1250.42457029 Eh          -34025.78240 eV

Components:
Nuclear Repulsion  :            0.00000000 Eh               0.00000 eV
Electronic Energy  :        -1250.42457029 Eh          -34025.78240 eV
One Electron Energy:        -1276.07627963 Eh          -34723.80089 eV
Two Electron Energy:           25.65170933 Eh             698.01850 eV

Virial components:
Potential Energy   :        -2673.21039596 Eh          -72741.75299 eV
Kinetic Energy     :         1422.78582566 Eh           38715.97060 eV
Virial Ratio       :            1.87885650


DFT components:
N(Alpha)           :        1.000000037464 electrons
N(Beta)            :        1.000000037464 electrons
N(Total)           :        2.000000074928 electrons
E(X)               :      -19.602488689380 Eh       
E(C)               :       -0.278865255133 Eh       
E(XC)              :      -19.881353944513 Eh       
DFET-embed. en.    :        0.000000000000 Eh       

---------------
SCF CONVERGENCE
---------------

  Last Energy change         ...   -5.6843e-12  Tolerance :   1.0000e-09
  Last MAX-Density change    ...    0.0000e+00  Tolerance :   1.0000e-08
  Last RMS-Density change    ...    0.0000e+00  Tolerance :   1.0000e-09
  Last Orbital Gradient      ...    1.3900e-11  Tolerance :   2.0000e-06
  Last Orbital Rotation      ...    0.0000e+00  Tolerance :   2.0000e-06

================================================================================
                                        WARNING
Number of found core electrons (2) does not match given number of chemical core electrons (18)
================================================================================
             **** THE GBW FILE WAS UPDATED (Kr_ano-rcc-qzp_1096.287912_.gbw) ****
             **** DENSITY FILE WAS UPDATED (Kr_ano-rcc-qzp_1096.287912_.scfp) ****
             **** ENERGY FILE WAS UPDATED (Kr_ano-rcc-qzp_1096.287912_.en.tmp) ****
             **** THE GBW FILE WAS UPDATED (Kr_ano-rcc-qzp_1096.287912_.gbw) ****
             **** DENSITY FILE WAS UPDATED (Kr_ano-rcc-qzp_1096.287912_.scfp) ****
----------------
ORBITAL ENERGIES
----------------

  NO   OCC          E(Eh)            E(eV) 
   0   2.0000    -605.722663    -16482.5516 
   1   0.0000    -147.497304     -4013.6057 
   2   0.0000    -146.755533     -3993.4211 
   3   0.0000    -146.755533     -3993.4211 
   4   0.0000    -146.755533     -3993.4211 
   5   0.0000     -62.839419     -1709.9475 
   6   0.0000     -61.396086     -1670.6724 
   7   0.0000     -61.396086     -1670.6724 
   8   0.0000     -61.396086     -1670.6724 
   9   0.0000     -56.941802     -1549.4652 
  10   0.0000     -56.941802     -1549.4652 
  11   0.0000     -56.941802     -1549.4652 
  12   0.0000     -56.941802     -1549.4652 
  13   0.0000     -56.941802     -1549.4652 
  14   0.0000     -32.057227      -872.3215 
  15   0.0000     -31.053043      -844.9963 
  16   0.0000     -31.053043      -844.9963 
  17   0.0000     -31.053043      -844.9963 
  18   0.0000     -24.548175      -667.9898 
  19   0.0000     -24.548175      -667.9898 
  20   0.0000     -24.548175      -667.9898 
  21   0.0000     -24.548175      -667.9898 
  22   0.0000     -24.548175      -667.9898 
  23   0.0000     -24.450503      -665.3320 
  24   0.0000     -24.450503      -665.3320 
  25   0.0000     -24.450503      -665.3320 
  26   0.0000     -24.450503      -665.3320 
  27   0.0000     -24.450503      -665.3320 
  28   0.0000     -24.450503      -665.3320 
  29   0.0000     -24.450503      -665.3320 
  30   0.0000     -18.898718      -514.2603 
  31   0.0000     -18.469737      -502.5871 
  32   0.0000     -18.469737      -502.5871 
  33   0.0000     -18.469737      -502.5871 
  34   0.0000     -15.768398      -429.0799 
  35   0.0000     -15.768398      -429.0799 
  36   0.0000     -15.768398      -429.0799 
  37   0.0000     -15.768398      -429.0799 
  38   0.0000     -15.768398      -429.0799 
  39   0.0000     -15.768398      -429.0799 
  40   0.0000     -15.768398      -429.0799 
  41   0.0000     -15.768398      -429.0799 
  42   0.0000     -15.768398      -429.0799 
  43   0.0000     -14.820474      -403.2856 
  44   0.0000     -14.820474      -403.2856 
  45   0.0000     -14.820474      -403.2856 
  46   0.0000     -14.820474      -403.2856 
  47   0.0000     -14.820474      -403.2856 
  48   0.0000     -14.820474      -403.2856 
  49   0.0000     -14.820474      -403.2856 
  50   0.0000     -14.345059      -390.3489 
  51   0.0000     -14.345059      -390.3489 
  52   0.0000     -14.345059      -390.3489 
  53   0.0000     -14.345059      -390.3489 
  54   0.0000     -14.345059      -390.3489 
  55   0.0000     -12.127839      -330.0153 
  56   0.0000     -11.869546      -322.9868 
  57   0.0000     -11.869546      -322.9868 
  58   0.0000     -11.869546      -322.9868 
  59   0.0000      -9.828183      -267.4384 
  60   0.0000      -9.828183      -267.4384 
  61   0.0000      -9.828183      -267.4384 
  62   0.0000      -9.828183      -267.4384 
  63   0.0000      -9.828183      -267.4384 
  64   0.0000      -9.828183      -267.4384 
  65   0.0000      -9.828183      -267.4384 
  66   0.0000      -9.828183      -267.4384 
  67   0.0000      -9.828183      -267.4384 
  68   0.0000      -9.656984      -262.7799 
  69   0.0000      -9.656984      -262.7799 
  70   0.0000      -9.656984      -262.7799 
  71   0.0000      -9.656984      -262.7799 
  72   0.0000      -9.656984      -262.7799 
  73   0.0000      -9.656984      -262.7799 
  74   0.0000      -9.656984      -262.7799 
  75   0.0000      -9.273098      -252.3338 
  76   0.0000      -9.273098      -252.3338 
  77   0.0000      -9.273098      -252.3338 
  78   0.0000      -9.273098      -252.3338 
  79   0.0000      -9.273098      -252.3338 
  80   0.0000      -7.946980      -216.2483 
  81   0.0000      -7.493609      -203.9115 
  82   0.0000      -7.493609      -203.9115 
  83   0.0000      -7.493609      -203.9115 

                    ********************************
                    * MULLIKEN POPULATION ANALYSIS *
                    ********************************

-----------------------
MULLIKEN ATOMIC CHARGES
-----------------------
   0 Kr:   34.000000
Sum of atomic charges:   34.0000000

--------------------------------
MULLIKEN REDUCED ORBITAL CHARGES
--------------------------------
  0 Krs       :     2.000000  s :     2.000000
      pz      :     0.000000  p :     0.000000
      px      :     0.000000
      py      :     0.000000
      dz2     :     0.000000  d :     0.000000
      dxz     :     0.000000
      dyz     :     0.000000
      dx2y2   :     0.000000
      dxy     :     0.000000
      f0      :     0.000000  f :     0.000000
      f+1     :     0.000000
      f-1     :     0.000000
      f+2     :     0.000000
      f-2     :     0.000000
      f+3     :     0.000000
      f-3     :     0.000000
      g0      :     0.000000  g :     0.000000
      g+1     :     0.000000
      g-1     :     0.000000
      g+2     :     0.000000
      g-2     :     0.000000
      g+3     :     0.000000
      g-3     :     0.000000
      g+4     :     0.000000
      g-4     :     0.000000


                     *******************************
                     * LOEWDIN POPULATION ANALYSIS *
                     *******************************

----------------------
LOEWDIN ATOMIC CHARGES
----------------------
   0 Kr:   34.000000

-------------------------------
LOEWDIN REDUCED ORBITAL CHARGES
-------------------------------
  0 Krs       :     2.000000  s :     2.000000
      pz      :     0.000000  p :     0.000000
      px      :     0.000000
      py      :     0.000000
      dz2     :     0.000000  d :     0.000000
      dxz     :     0.000000
      dyz     :     0.000000
      dx2y2   :     0.000000
      dxy     :     0.000000
      f0      :     0.000000  f :     0.000000
      f+1     :     0.000000
      f-1     :     0.000000
      f+2     :     0.000000
      f-2     :     0.000000
      f+3     :     0.000000
      f-3     :     0.000000
      g0      :     0.000000  g :     0.000000
      g+1     :     0.000000
      g-1     :     0.000000
      g+2     :     0.000000
      g-2     :     0.000000
      g+3     :     0.000000
      g-3     :     0.000000
      g+4     :     0.000000
      g-4     :     0.000000


                      *****************************
                      * MAYER POPULATION ANALYSIS *
                      *****************************

  NA   - Mulliken gross atomic population
  ZA   - Total nuclear charge
  QA   - Mulliken gross atomic charge
  VA   - Mayer's total valence
  BVA  - Mayer's bonded valence
  FA   - Mayer's free valence

  ATOM       NA         ZA         QA         VA         BVA        FA
  0 Kr     2.0000    36.0000    34.0000    -0.0000     0.0000    -0.0000

  Mayer bond orders larger than 0.100000


--------------------------
ATOM BASIS FOR ELEMENT Kr
--------------------------
 NewGTO Kr
 S 139
    1   18535881.300000000745         0.000137341829
    2    2419299.990000000224         0.000443161366
    3     474949.065000000002         0.001295208634
    4     117392.346000000005         0.003458682390
    5      34065.440100000000         0.008980441820
    6      11133.885300000000         0.023266991602
    7       3988.280760000000         0.059846781821
    8       1534.678610000000         0.144115102488
    9        624.475513000000         0.287648042000
   10        265.735250000000         0.382458967802
   11        116.709586000000         0.227382025648
   12         50.306071000000         0.027101794229
   13         23.036081700000         0.000594151389
   14         10.586238100000        -0.000552216938
   15          4.798113940000         0.000380629640
   16          2.133543170000        -0.000271684054
   17          0.857316380000         0.000151509954
   18          0.378404470000        -0.000084018884
   19          0.152386050000         0.000035795264
   20          0.060954420000        -0.000009808702
   21   18535881.300000000745        -0.000000642367
   22    2419299.990000000224        -0.000002074962
   23     474949.065000000002        -0.000006076158
   24     117392.346000000005        -0.000016284495
   25      34065.440100000000        -0.000042579843
   26      11133.885300000000        -0.000111749891
   27       3988.280760000000        -0.000295337103
   28       1534.678610000000        -0.000752809858
   29        624.475513000000        -0.001706678207
   30        265.735250000000        -0.002953479219
   31        116.709586000000        -0.002362909886
   32         50.306071000000         0.003979334768
   33         23.036081700000         0.009381777795
   34         10.586238100000         0.003634427233
   35          4.798113940000         0.000148719520
   36          2.133543170000         0.000040695154
   37          0.857316380000        -0.000013343572
   38          0.378404470000         0.000006179300
   39          0.152386050000        -0.000002873124
   40   18535881.300000000745        -0.000000102526
   41    2419299.990000000224        -0.000000331194
   42     474949.065000000002        -0.000000970194
   43     117392.346000000005        -0.000002601346
   44      34065.440100000000        -0.000006808455
   45      11133.885300000000        -0.000017897898
   46       3988.280760000000        -0.000047471804
   47       1534.678610000000        -0.000121930177
   48        624.475513000000        -0.000281263343
   49        265.735250000000        -0.000505680933
   50        116.709586000000        -0.000432642942
   51         50.306071000000         0.000902627346
   52         23.036081700000         0.003049802662
   53         10.586238100000         0.001227035989
   54          4.798113940000        -0.003984397806
   55          2.133543170000        -0.003391175833
   56          0.857316380000        -0.000184656276
   57          0.378404470000        -0.000034260308
   58          0.152386050000         0.000014168538
   59          0.060954420000        -0.000004725343
   60   18535881.300000000745        -0.000000010597
   61    2419299.990000000224        -0.000000034228
   62     474949.065000000002        -0.000000100245
   63     117392.346000000005        -0.000000268781
   64      34065.440100000000        -0.000000703622
   65      11133.885300000000        -0.000001850079
   66       3988.280760000000        -0.000004909974
   67       1534.678610000000        -0.000012626005
   68        624.475513000000        -0.000029205714
   69        265.735250000000        -0.000052823021
   70        116.709586000000        -0.000045722614
   71         50.306071000000         0.000098687973
   72         23.036081700000         0.000353715589
   73         10.586238100000         0.000147059382
   74          4.798113940000        -0.000611548217
   75          2.133543170000        -0.000953560503
   76          0.857316380000         0.000390648444
   77          0.378404470000         0.001431500898
   78          0.152386050000         0.000541058428
   79          0.060954420000        -0.000001677254
   80   18535881.300000000745        -0.000000013924
   81    2419299.990000000224        -0.000000045007
   82     474949.065000000002        -0.000000131556
   83     117392.346000000005        -0.000000354555
   84      34065.440100000000        -0.000000918962
   85      11133.885300000000        -0.000002458449
   86       3988.280760000000        -0.000006356709
   87       1534.678610000000        -0.000016965856
   88        624.475513000000        -0.000037338610
   89        265.735250000000        -0.000073166526
   90        116.709586000000        -0.000051294883
   91         50.306071000000         0.000108805215
   92         23.036081700000         0.000550287100
   93         10.586238100000         0.000030687663
   94          4.798113940000        -0.000625155101
   95          2.133543170000        -0.002290774487
   96          0.857316380000         0.003842506075
   97          0.378404470000         0.000788302018
   98          0.152386050000        -0.002832618605
   99          0.060954420000        -0.000065299292
  100   18535881.300000000745        -0.000000022452
  101    2419299.990000000224        -0.000000072409
  102     474949.065000000002        -0.000000213237
  103     117392.346000000005        -0.000000565281
  104      34065.440100000000        -0.000001513277
  105      11133.885300000000        -0.000003831327
  106       3988.280760000000        -0.000010773082
  107       1534.678610000000        -0.000025608711
  108        624.475513000000        -0.000066198722
  109        265.735250000000        -0.000102123210
  110        116.709586000000        -0.000128093488
  111         50.306071000000         0.000313459794
  112         23.036081700000         0.000630012938
  113         10.586238100000         0.000669953022
  114          4.798113940000        -0.002911647989
  115          2.133543170000        -0.001543669700
  116          0.857316380000         0.010706270857
  117          0.378404470000        -0.011955162589
  118          0.152386050000         0.004028799174
  119          0.060954420000         0.001195094714
  120   18535881.300000000745        -0.000000028598
  121    2419299.990000000224        -0.000000091377
  122     474949.065000000002        -0.000000274906
  123     117392.346000000005        -0.000000694922
  124      34065.440100000000        -0.000002036138
  125      11133.885300000000        -0.000004381690
  126       3988.280760000000        -0.000015576328
  127       1534.678610000000        -0.000026070849
  128        624.475513000000        -0.000105553146
  129        265.735250000000        -0.000069920707
  130        116.709586000000        -0.000326888666
  131         50.306071000000         0.000882171451
  132         23.036081700000        -0.000275816621
  133         10.586238100000         0.003291940889
  134          4.798113940000        -0.010265495051
  135          2.133543170000         0.010997024883
  136          0.857316380000        -0.002904765168
  137          0.378404470000        -0.006638799791
  138          0.152386050000         0.011091760630
  139          0.060954420000        -0.006704774616
 S 138
    1   18535881.300000000745         0.000002040019
    2    2419299.990000000224         0.000006582535
    3     474949.065000000002         0.000019238491
    4     117392.346000000005         0.000051373833
    5      34065.440100000000         0.000133391756
    6      11133.885300000000         0.000345598237
    7       3988.280760000000         0.000888939259
    8       1534.678610000000         0.002140625920
    9        624.475513000000         0.004272604632
   10        265.735250000000         0.005680886774
   11        116.709586000000         0.003377438238
   12         50.306071000000         0.000402558803
   13         23.036081700000         0.000008825278
   14         10.586238100000        -0.000008202401
   15          4.798113940000         0.000005653715
   16          2.133543170000        -0.000004035482
   17          0.857316380000         0.000002250466
   18          0.378404470000        -0.000001247982
   19   18535881.300000000745         0.000044438393
   20    2419299.990000000224         0.000143544092
   21     474949.065000000002         0.000420343486
   22     117392.346000000005         0.001126547687
   23      34065.440100000000         0.002945637738
   24      11133.885300000000         0.007730763478
   25       3988.280760000000         0.020431172319
   26       1534.678610000000         0.052078752662
   27        624.475513000000         0.118066562606
   28        265.735250000000         0.204319207763
   29        116.709586000000         0.163464118169
   30         50.306071000000        -0.275287031696
   31         23.036081700000        -0.649023495578
   32         10.586238100000        -0.251426618559
   33          4.798113940000        -0.010288291282
   34          2.133543170000        -0.002815256511
   35          0.857316380000         0.000923097089
   36          0.378404470000        -0.000427478777
   37          0.152386050000         0.000198760267
   38          0.060954420000        -0.000051833149
   39   18535881.300000000745         0.000000996996
   40    2419299.990000000224         0.000003220638
   41     474949.065000000002         0.000009434489
   42     117392.346000000005         0.000025296352
   43      34065.440100000000         0.000066207680
   44      11133.885300000000         0.000174045104
   45       3988.280760000000         0.000461631587
   46       1534.678610000000         0.001185689536
   47        624.475513000000         0.002735098159
   48        265.735250000000         0.004917409342
   49        116.709586000000         0.004207163658
   50         50.306071000000        -0.008777448093
   51         23.036081700000        -0.029657293991
   52         10.586238100000        -0.011932105478
   53          4.798113940000         0.038745607571
   54          2.133543170000         0.032976920088
   55          0.857316380000         0.001795658955
   56          0.378404470000         0.000333158616
   57          0.152386050000        -0.000137779568
   58          0.060954420000         0.000045950803
   59   18535881.300000000745         0.000000076822
   60    2419299.990000000224         0.000000248144
   61     474949.065000000002         0.000000726755
   62     117392.346000000005         0.000001948603
   63      34065.440100000000         0.000005101109
   64      11133.885300000000         0.000013412675
   65       3988.280760000000         0.000035596254
   66       1534.678610000000         0.000091535807
   67        624.475513000000         0.000211735117
   68        265.735250000000         0.000382955489
   69        116.709586000000         0.000331479075
   70         50.306071000000        -0.000715466482
   71         23.036081700000        -0.002564361598
   72         10.586238100000        -0.001066148749
   73          4.798113940000         0.004433592437
   74          2.133543170000         0.006913107620
   75          0.857316380000        -0.002832116811
   76          0.378404470000        -0.010378072213
   77          0.152386050000        -0.003922556703
   78          0.060954420000         0.000012159726
   79   18535881.300000000745         0.000000091948
   80    2419299.990000000224         0.000000297200
   81     474949.065000000002         0.000000868719
   82     117392.346000000005         0.000002341269
   83      34065.440100000000         0.000006068271
   84      11133.885300000000         0.000016234109
   85       3988.280760000000         0.000041975861
   86       1534.678610000000         0.000112032245
   87        624.475513000000         0.000246561584
   88        265.735250000000         0.000483147466
   89        116.709586000000         0.000338720366
   90         50.306071000000        -0.000718483803
   91         23.036081700000        -0.003633763030
   92         10.586238100000        -0.000202642756
   93          4.798113940000         0.004128146006
   94          2.133543170000         0.015126888568
   95          0.857316380000        -0.025373585027
   96          0.378404470000        -0.005205469526
   97          0.152386050000         0.018704899252
   98          0.060954420000         0.000431197013
   99   18535881.300000000745         0.000000128353
  100    2419299.990000000224         0.000000413954
  101     474949.065000000002         0.000001219050
  102     117392.346000000005         0.000003231637
  103      34065.440100000000         0.000008651207
  104      11133.885300000000         0.000021903201
  105       3988.280760000000         0.000061588315
  106       1534.678610000000         0.000146401684
  107        624.475513000000         0.000378449510
  108        265.735250000000         0.000583825152
  109        116.709586000000         0.000732293867
  110         50.306071000000        -0.001792009007
  111         23.036081700000        -0.003601702293
  112         10.586238100000        -0.003830034573
  113          4.798113940000         0.016645514088
  114          2.133543170000         0.008824959555
  115          0.857316380000        -0.061206362531
  116          0.378404470000         0.068346114660
  117          0.152386050000        -0.023032122587
  118          0.060954420000        -0.006832201547
  119   18535881.300000000745         0.000000134605
  120    2419299.990000000224         0.000000430090
  121     474949.065000000002         0.000001293924
  122     117392.346000000005         0.000003270850
  123      34065.440100000000         0.000009583664
  124      11133.885300000000         0.000020623678
  125       3988.280760000000         0.000073314441
  126       1534.678610000000         0.000122709907
  127        624.475513000000         0.000496816069
  128        265.735250000000         0.000329101805
  129        116.709586000000         0.001538594992
  130         50.306071000000        -0.004152192221
  131         23.036081700000         0.001298209806
  132         10.586238100000        -0.015494461232
  133          4.798113940000         0.048317488209
  134          2.133543170000        -0.051760642569
  135          0.857316380000         0.013672107975
  136          0.378404470000         0.031247409799
  137          0.152386050000        -0.052206543455
  138          0.060954420000         0.031557939179
 S 138
    1   18535881.300000000745         0.000000820347
    2    2419299.990000000224         0.000002647018
    3     474949.065000000002         0.000007736324
    4     117392.346000000005         0.000020658825
    5      34065.440100000000         0.000053640478
    6      11133.885300000000         0.000138974516
    7       3988.280760000000         0.000357466822
    8       1534.678610000000         0.000860804309
    9        624.475513000000         0.001718131339
   10        265.735250000000         0.002284440158
   11        116.709586000000         0.001358160416
   12         50.306071000000         0.000161879920
   13         23.036081700000         0.000003548886
   14         10.586238100000        -0.000003298410
   15          4.798113940000         0.000002273514
   16          2.133543170000        -0.000001622778
   17          0.857316380000         0.000000904974
   18          0.378404470000        -0.000000501848
   19   18535881.300000000745        -0.000002743346
   20    2419299.990000000224        -0.000008861507
   21     474949.065000000002        -0.000025949356
   22     117392.346000000005        -0.000069545949
   23      34065.440100000000        -0.000181845096
   24      11133.885300000000        -0.000477248580
   25       3988.280760000000        -0.001261291722
   26       1534.678610000000        -0.003215013734
   27        624.475513000000        -0.007288684943
   28        265.735250000000        -0.012613379269
   29        116.709586000000        -0.010091243706
   30         50.306071000000         0.016994485132
   31         23.036081700000         0.040066617298
   32         10.586238100000         0.015521493710
   33          4.798113940000         0.000635134217
   34          2.133543170000         0.000173796182
   35          0.857316380000        -0.000056986192
   36          0.378404470000         0.000026389844
   37          0.152386050000        -0.000012270205
   38          0.060954420000         0.000003199852
   39   18535881.300000000745         0.000017035120
   40    2419299.990000000224         0.000055029232
   41     474949.065000000002         0.000161201828
   42     117392.346000000005         0.000432224597
   43      34065.440100000000         0.001131253563
   44      11133.885300000000         0.002973811260
   45       3988.280760000000         0.007887640482
   46       1534.678610000000         0.020259213312
   47        624.475513000000         0.046733091034
   48        265.735250000000         0.084021020491
   49        116.709586000000         0.071885450102
   50         50.306071000000        -0.149975341642
   51         23.036081700000        -0.506737579254
   52         10.586238100000        -0.203877206307
   53          4.798113940000         0.662024505440
   54          2.133543170000         0.563458171933
   55          0.857316380000         0.030681419289
   56          0.378404470000         0.005692494761
   57          0.152386050000        -0.002354162341
   58          0.060954420000         0.000785135653
   59   18535881.300000000745         0.000000965663
   60    2419299.990000000224         0.000003119191
   61     474949.065000000002         0.000009135370
   62     117392.346000000005         0.000024494087
   63      34065.440100000000         0.000064121346
   64      11133.885300000000         0.000168598374
   65       3988.280760000000         0.000447447706
   66       1534.678610000000         0.001150612275
   67        624.475513000000         0.002661527036
   68        265.735250000000         0.004813780558
   69        116.709586000000         0.004166717990
   70         50.306071000000        -0.008993469839
   71         23.036081700000        -0.032234226570
   72         10.586238100000        -0.013401573454
   73          4.798113940000         0.055730604935
   74          2.133543170000         0.086898305404
   75          0.857316380000        -0.035599930618
   76          0.378404470000        -0.130453182310
   77          0.152386050000        -0.049306845644
   78          0.060954420000         0.000152848715
   79   18535881.300000000745         0.000001070279
   80    2419299.990000000224         0.000003459439
   81     474949.065000000002         0.000010111958
   82     117392.346000000005         0.000027252566
   83      34065.440100000000         0.000070635190
   84      11133.885300000000         0.000188966405
   85       3988.280760000000         0.000488602571
   86       1534.678610000000         0.001304064817
   87        624.475513000000         0.002869997703
   88        265.735250000000         0.005623877392
   89        116.709586000000         0.003942733727
   90         50.306071000000        -0.008363212263
   91         23.036081700000        -0.042297309146
   92         10.586238100000        -0.002358778827
   93          4.798113940000         0.048051968828
   94          2.133543170000         0.176078262929
   95          0.857316380000        -0.295350676766
   96          0.378404470000        -0.060592105759
   97          0.152386050000         0.217726610059
   98          0.060954420000         0.005019169721
   99   18535881.300000000745         0.000001322444
  100    2419299.990000000224         0.000004265039
  101     474949.065000000002         0.000012560085
  102     117392.346000000005         0.000033296133
  103      34065.440100000000         0.000089134923
  104      11133.885300000000         0.000225672572
  105       3988.280760000000         0.000634555354
  106       1534.678610000000         0.001508402575
  107        624.475513000000         0.003899232588
  108        265.735250000000         0.006015254337
  109        116.709586000000         0.007544953902
  110         50.306071000000        -0.018463387399
  111         23.036081700000        -0.037108979072
  112         10.586238100000        -0.039461527150
  113          4.798113940000         0.171501691065
  114          2.133543170000         0.090925127292
  115          0.857316380000        -0.630620035090
  116          0.378404470000         0.704182170660
  117          0.152386050000        -0.237304053917
  118          0.060954420000        -0.070393387239
  119   18535881.300000000745         0.000001172305
  120    2419299.990000000224         0.000003745747
  121     474949.065000000002         0.000011269057
  122     117392.346000000005         0.000028486523
  123      34065.440100000000         0.000083466160
  124      11133.885300000000         0.000179615976
  125       3988.280760000000         0.000638510987
  126       1534.678610000000         0.001068706552
  127        624.475513000000         0.004326876307
  128        265.735250000000         0.002866217277
  129        116.709586000000         0.013399949459
  130         50.306071000000        -0.036162320937
  131         23.036081700000         0.011306383990
  132         10.586238100000        -0.134944542540
  133          4.798113940000         0.420807232052
  134          2.133543170000        -0.450794392179
  135          0.857316380000         0.119073282296
  136          0.378404470000         0.272140305998
  137          0.152386050000        -0.454677837377
  138          0.060954420000         0.274844772101
 S 136
    1   18535881.300000000745         0.000000330399
    2    2419299.990000000224         0.000001066101
    3     474949.065000000002         0.000003115848
    4     117392.346000000005         0.000008320457
    5      34065.440100000000         0.000021604002
    6      11133.885300000000         0.000055972762
    7       3988.280760000000         0.000143971758
    8       1534.678610000000         0.000346693742
    9        624.475513000000         0.000691986990
   10        265.735250000000         0.000920071029
   11        116.709586000000         0.000547006691
   12         50.306071000000         0.000065198042
   13         23.036081700000         0.000001429334
   14         10.586238100000        -0.000001328453
   15          4.798113940000         0.000000915670
   16          2.133543170000        -0.000000653583
   17          0.857316380000         0.000000364483
   18   18535881.300000000745        -0.000000411024
   19    2419299.990000000224        -0.000001327681
   20     474949.065000000002        -0.000003887880
   21     117392.346000000005        -0.000010419770
   22      34065.440100000000        -0.000027245067
   23      11133.885300000000        -0.000071504099
   24       3988.280760000000        -0.000188973905
   25       1534.678610000000        -0.000481691658
   26        624.475513000000        -0.001092032266
   27        265.735250000000        -0.001889808279
   28        116.709586000000        -0.001511927573
   29         50.306071000000         0.002546210497
   30         23.036081700000         0.006003008668
   31         10.586238100000         0.002325518538
   32          4.798113940000         0.000095159424
   33          2.133543170000         0.000026039133
   34          0.857316380000        -0.000008537996
   35          0.378404470000         0.000003953877
   36          0.152386050000        -0.000001838392
   37   18535881.300000000745        -0.000005476513
   38    2419299.990000000224        -0.000017691001
   39     474949.065000000002        -0.000051823761
   40     117392.346000000005        -0.000138953164
   41      34065.440100000000        -0.000363679585
   42      11133.885300000000        -0.000956031858
   43       3988.280760000000        -0.002535747876
   44       1534.678610000000        -0.006513006931
   45        624.475513000000        -0.015023927194
   46        265.735250000000        -0.027011388863
   47        116.709586000000        -0.023110000746
   48         50.306071000000         0.048214628306
   49         23.036081700000         0.162907873821
   50         10.586238100000         0.065543199399
   51          4.798113940000        -0.212830089999
   52          2.133543170000        -0.181142620035
   53          0.857316380000        -0.009863576310
   54          0.378404470000        -0.001830044299
   55          0.152386050000         0.000756824829
   56          0.060954420000        -0.000252408318
   57   18535881.300000000745         0.000003267601
   58    2419299.990000000224         0.000010554692
   59     474949.065000000002         0.000030912188
   60     117392.346000000005         0.000082882880
   61      34065.440100000000         0.000216973259
   62      11133.885300000000         0.000570501731
   63       3988.280760000000         0.001514069704
   64       1534.678610000000         0.003893431930
   65        624.475513000000         0.009006052319
   66        265.735250000000         0.016288829296
   67        116.709586000000         0.014099304538
   68         50.306071000000        -0.030432025975
   69         23.036081700000        -0.109073898933
   70         10.586238100000        -0.045348129117
   71          4.798113940000         0.188580742175
   72          2.133543170000         0.294045739249
   73          0.857316380000        -0.120462739372
   74          0.378404470000        -0.441426357526
   75          0.152386050000        -0.166844080677
   76          0.060954420000         0.000517208169
   77   18535881.300000000745         0.000003506502
   78    2419299.990000000224         0.000011333989
   79     474949.065000000002         0.000033129309
   80     117392.346000000005         0.000089286237
   81      34065.440100000000         0.000231418587
   82      11133.885300000000         0.000619101311
   83       3988.280760000000         0.001600784500
   84       1534.678610000000         0.004272443228
   85        624.475513000000         0.009402831889
   86        265.735250000000         0.018425232056
   87        116.709586000000         0.012917384004
   88         50.306071000000        -0.027399979754
   89         23.036081700000        -0.138576587303
   90         10.586238100000        -0.007727950707
   91          4.798113940000         0.157430294924
   92          2.133543170000         0.576876526373
   93          0.857316380000        -0.967642851768
   94          0.378404470000        -0.198514926912
   95          0.152386050000         0.713326951440
   96          0.060954420000         0.016444058145
   97   18535881.300000000745         0.000003926003
   98    2419299.990000000224         0.000012661825
   99     474949.065000000002         0.000037287725
  100     117392.346000000005         0.000098847824
  101      34065.440100000000         0.000264619113
  102      11133.885300000000         0.000669964965
  103       3988.280760000000         0.001883834846
  104       1534.678610000000         0.004478066905
  105        624.475513000000         0.011575838372
  106        265.735250000000         0.017857773396
  107        116.709586000000         0.022399065695
  108         50.306071000000        -0.054813141694
  109         23.036081700000        -0.110167201938
  110         10.586238100000        -0.117151323992
  111          4.798113940000         0.509145277090
  112          2.133543170000         0.269933776409
  113          0.857316380000        -1.872151875071
  114          0.378404470000         2.090539307089
  115          0.152386050000        -0.704495900513
  116          0.060954420000        -0.208980217212
  117   18535881.300000000745         0.000002888672
  118    2419299.990000000224         0.000009229881
  119     474949.065000000002         0.000027768042
  120     117392.346000000005         0.000070193533
  121      34065.440100000000         0.000205668649
  122      11133.885300000000         0.000442591045
  123       3988.280760000000         0.001573352503
  124       1534.678610000000         0.002633395763
  125        624.475513000000         0.010661839503
  126        265.735250000000         0.007062635125
  127        116.709586000000         0.033018764660
  128         50.306071000000        -0.089107437920
  129         23.036081700000         0.027860017923
  130         10.586238100000        -0.332516335667
  131          4.798113940000         1.036909505121
  132          2.133543170000        -1.110800752700
  133          0.857316380000         0.293408023470
  134          0.378404470000         0.670579896260
  135          0.152386050000        -1.120369935289
  136          0.060954420000         0.677243960933
 S 136
    1   18535881.300000000745         0.000000173587
    2    2419299.990000000224         0.000000560113
    3     474949.065000000002         0.000001637017
    4     117392.346000000005         0.000004371437
    5      34065.440100000000         0.000011350402
    6      11133.885300000000         0.000029407208
    7       3988.280760000000         0.000075640494
    8       1534.678610000000         0.000182147431
    9        624.475513000000         0.000363559065
   10        265.735250000000         0.000483390827
   11        116.709586000000         0.000287388699
   12         50.306071000000         0.000034254024
   13         23.036081700000         0.000000750949
   14         10.586238100000        -0.000000697948
   15          4.798113940000         0.000000481079
   16          2.133543170000        -0.000000343382
   17          0.857316380000         0.000000191494
   18   18535881.300000000745        -0.000000169747
   19    2419299.990000000224        -0.000000548315
   20     474949.065000000002        -0.000001605644
   21     117392.346000000005        -0.000004303229
   22      34065.440100000000        -0.000011251856
   23      11133.885300000000        -0.000029530257
   24       3988.280760000000        -0.000078043749
   25       1534.678610000000        -0.000198932348
   26        624.475513000000        -0.000450995027
   27        265.735250000000        -0.000780466075
   28        116.709586000000        -0.000624406291
   29         50.306071000000         0.001051551597
   30         23.036081700000         0.002479163979
   31         10.586238100000         0.000960408707
   32          4.798113940000         0.000039299596
   33          2.133543170000         0.000010753821
   34          0.857316380000        -0.000003526080
   35          0.378404470000         0.000001632899
   36          0.152386050000        -0.000000759232
   37   18535881.300000000745        -0.000000425431
   38    2419299.990000000224        -0.000001374288
   39     474949.065000000002        -0.000004025820
   40     117392.346000000005        -0.000010794285
   41      34065.440100000000        -0.000028251685
   42      11133.885300000000        -0.000074267328
   43       3988.280760000000        -0.000196984250
   44       1534.678610000000        -0.000505949268
   45        624.475513000000        -0.001167102239
   46        265.735250000000        -0.002098323029
   47        116.709586000000        -0.001795251885
   48         50.306071000000         0.003745452165
   49         23.036081700000         0.012655156124
   50         10.586238100000         0.005091585826
   51          4.798113940000        -0.016533258668
   52          2.133543170000        -0.014071684097
   53          0.857316380000        -0.000766231215
   54          0.378404470000        -0.000142163149
   55          0.152386050000         0.000058792348
   56          0.060954420000        -0.000019607810
   57   18535881.300000000745        -0.000004276574
   58    2419299.990000000224        -0.000013813776
   59     474949.065000000002        -0.000040457273
   60     117392.346000000005        -0.000108475509
   61      34065.440100000000        -0.000283970400
   62      11133.885300000000        -0.000746661617
   63       3988.280760000000        -0.001981585106
   64       1534.678610000000        -0.005095648310
   65        624.475513000000        -0.011786946863
   66        265.735250000000        -0.021318504331
   67        116.709586000000        -0.018452896730
   68         50.306071000000         0.039828846246
   69         23.036081700000         0.142753806584
   70         10.586238100000         0.059350753171
   71          4.798113940000        -0.246810823280
   72          2.133543170000        -0.384841369002
   73          0.857316380000         0.157659300393
   74          0.378404470000         0.577730268011
   75          0.152386050000         0.218362301666
   76          0.060954420000        -0.000676912035
   77   18535881.300000000745         0.000000547063
   78    2419299.990000000224         0.000001768258
   79     474949.065000000002         0.000005168627
   80     117392.346000000005         0.000013929879
   81      34065.440100000000         0.000036104477
   82      11133.885300000000         0.000096588305
   83       3988.280760000000         0.000249744361
   84       1534.678610000000         0.000666559805
   85        624.475513000000         0.001466970877
   86        265.735250000000         0.002874589181
   87        116.709586000000         0.002015289262
   88         50.306071000000        -0.004274773047
   89         23.036081700000        -0.021619850293
   90         10.586238100000        -0.001205666416
   91          4.798113940000         0.024561287546
   92          2.133543170000         0.090000658701
   93          0.857316380000        -0.150965570733
   94          0.378404470000        -0.030971054233
   95          0.152386050000         0.111288798493
   96          0.060954420000         0.002565498850
   97   18535881.300000000745         0.000004336960
   98    2419299.990000000224         0.000013987211
   99     474949.065000000002         0.000041190845
  100     117392.346000000005         0.000109194792
  101      34065.440100000000         0.000292318313
  102      11133.885300000000         0.000740094040
  103       3988.280760000000         0.002081026643
  104       1534.678610000000         0.004946811849
  105        624.475513000000         0.012787547761
  106        265.735250000000         0.019727048951
  107        116.709586000000         0.024743704359
  108         50.306071000000        -0.060550747586
  109         23.036081700000        -0.121699034769
  110         10.586238100000        -0.129414224932
  111          4.798113940000         0.562440433170
  112          2.133543170000         0.298189292844
  113          0.857316380000        -2.068120748546
  114          0.378404470000         2.309368045516
  115          0.152386050000        -0.778239526674
  116          0.060954420000        -0.230855375040
  117   18535881.300000000745         0.000004077109
  118    2419299.990000000224         0.000013027171
  119     474949.065000000002         0.000039192164
  120     117392.346000000005         0.000099072036
  121      34065.440100000000         0.000290283322
  122      11133.885300000000         0.000624678576
  123       3988.280760000000         0.002220649540
  124       1534.678610000000         0.003716807949
  125        624.475513000000         0.015048254567
  126        265.735250000000         0.009968292173
  127        116.709586000000         0.046603100333
  128         50.306071000000        -0.125767360246
  129         23.036081700000         0.039321980212
  130         10.586238100000        -0.469317744415
  131          4.798113940000         1.463507136062
  132          2.133543170000        -1.567798173603
  133          0.857316380000         0.414119779987
  134          0.378404470000         0.946464911962
  135          0.152386050000        -1.581304238439
  136          0.060954420000         0.955870656779
 S 134
    1   18535881.300000000745         0.000000109174
    2    2419299.990000000224         0.000000352272
    3     474949.065000000002         0.000001029572
    4     117392.346000000005         0.000002749334
    5      34065.440100000000         0.000007138624
    6      11133.885300000000         0.000018495115
    7       3988.280760000000         0.000047572680
    8       1534.678610000000         0.000114558233
    9        624.475513000000         0.000228653700
   10        265.735250000000         0.000304019654
   11        116.709586000000         0.000180747768
   12         50.306071000000         0.000021543430
   13         23.036081700000         0.000000472296
   14         10.586238100000        -0.000000438962
   15          4.798113940000         0.000000302566
   16          2.133543170000        -0.000000215964
   17   18535881.300000000745        -0.000000098588
   18    2419299.990000000224        -0.000000318458
   19     474949.065000000002        -0.000000932549
   20     117392.346000000005        -0.000002499291
   21      34065.440100000000        -0.000006535014
   22      11133.885300000000        -0.000017151005
   23       3988.280760000000        -0.000045327366
   24       1534.678610000000        -0.000115538779
   25        624.475513000000        -0.000261935352
   26        265.735250000000        -0.000453290267
   27        116.709586000000        -0.000362651630
   28         50.306071000000         0.000610735199
   29         23.036081700000         0.001439884369
   30         10.586238100000         0.000557799926
   31          4.798113940000         0.000022824982
   32          2.133543170000         0.000006245758
   33          0.857316380000        -0.000002047928
   34          0.378404470000         0.000000948379
   35   18535881.300000000745        -0.000000285855
   36    2419299.990000000224        -0.000000923407
   37     474949.065000000002        -0.000002705016
   38     117392.346000000005        -0.000007252861
   39      34065.440100000000        -0.000018982781
   40      11133.885300000000        -0.000049901463
   41       3988.280760000000        -0.000132357021
   42       1534.678610000000        -0.000339955799
   43        624.475513000000        -0.000784195569
   44        265.735250000000        -0.001409898437
   45        116.709586000000        -0.001206259852
   46         50.306071000000         0.002516632129
   47         23.036081700000         0.008503211656
   48         10.586238100000         0.003421121914
   49          4.798113940000        -0.011108973799
   50          2.133543170000        -0.009455000559
   51          0.857316380000        -0.000514843605
   52          0.378404470000        -0.000095521804
   53          0.152386050000         0.000039503565
   54          0.060954420000        -0.000013174817
   55   18535881.300000000745         0.000001827588
   56    2419299.990000000224         0.000005903299
   57     474949.065000000002         0.000017289363
   58     117392.346000000005         0.000046356868
   59      34065.440100000000         0.000121354382
   60      11133.885300000000         0.000319084873
   61       3988.280760000000         0.000846827823
   62       1534.678610000000         0.002177618690
   63        624.475513000000         0.005037136441
   64        265.735250000000         0.009110435152
   65        116.709586000000         0.007885821464
   66         50.306071000000        -0.017020805741
   67         23.036081700000        -0.061005653933
   68         10.586238100000        -0.025363467324
   69          4.798113940000         0.105474284941
   70          2.133543170000         0.164461459476
   71          0.857316380000        -0.067375497364
   72          0.378404470000        -0.246892280076
   73          0.152386050000        -0.093316846158
   74          0.060954420000         0.000289277480
   75   18535881.300000000745        -0.000005112145
   76    2419299.990000000224        -0.000016523870
   77     474949.065000000002        -0.000048299356
   78     117392.346000000005        -0.000130170774
   79      34065.440100000000        -0.000337386116
   80      11133.885300000000        -0.000902590363
   81       3988.280760000000        -0.002333790347
   82       1534.678610000000        -0.006228812662
   83        624.475513000000        -0.013708427521
   84        265.735250000000        -0.026862222061
   85        116.709586000000        -0.018832307593
   86         50.306071000000         0.039946543869
   87         23.036081700000         0.202031380082
   88         10.586238100000         0.011266611315
   89          4.798113940000        -0.229518278443
   90          2.133543170000        -0.841030675009
   91          0.857316380000         1.410730517858
   92          0.378404470000         0.289415733433
   93          0.152386050000        -1.039962314369
   94          0.060954420000        -0.023973860418
   95   18535881.300000000745         0.000001135569
   96    2419299.990000000224         0.000003662346
   97     474949.065000000002         0.000010785219
   98     117392.346000000005         0.000028591055
   99      34065.440100000000         0.000076539264
  100      11133.885300000000         0.000193782773
  101       3988.280760000000         0.000544886316
  102       1534.678610000000         0.001295250155
  103        624.475513000000         0.003348231897
  104        265.735250000000         0.005165238541
  105        116.709586000000         0.006478776208
  106         50.306071000000        -0.015854325494
  107         23.036081700000        -0.031865107970
  108         10.586238100000        -0.033885217398
  109          4.798113940000         0.147266781231
  110          2.133543170000         0.078076494443
  111          0.857316380000        -0.541507096350
  112          0.378404470000         0.604674164026
  113          0.152386050000        -0.203770609937
  114          0.060954420000        -0.060446095279
  115   18535881.300000000745         0.000005133334
  116    2419299.990000000224         0.000016402020
  117     474949.065000000002         0.000049345378
  118     117392.346000000005         0.000124737872
  119      34065.440100000000         0.000365484804
  120      11133.885300000000         0.000786509280
  121       3988.280760000000         0.002795936245
  122       1534.678610000000         0.004679692978
  123        624.475513000000         0.018946690868
  124        265.735250000000         0.012550701441
  125        116.709586000000         0.058676209361
  126         50.306071000000        -0.158348949058
  127         23.036081700000         0.049508825098
  128         10.586238100000        -0.590900305588
  129          4.798113940000         1.842646744602
  130          2.133543170000        -1.973955664169
  131          0.857316380000         0.521402626379
  132          0.378404470000         1.191658343122
  133          0.152386050000        -1.990960641999
  134          0.060954420000         1.203500762363
 S 134
    1   18535881.300000000745         0.000000075014
    2    2419299.990000000224         0.000000242049
    3     474949.065000000002         0.000000707425
    4     117392.346000000005         0.000001889086
    5      34065.440100000000         0.000004904996
    6      11133.885300000000         0.000012708117
    7       3988.280760000000         0.000032687505
    8       1534.678610000000         0.000078713726
    9        624.475513000000         0.000157109483
   10        265.735250000000         0.000208893932
   11        116.709586000000         0.000124192997
   12         50.306071000000         0.000014802635
   13         23.036081700000         0.000000324517
   14         10.586238100000        -0.000000301613
   15          4.798113940000         0.000000207895
   16          2.133543170000        -0.000000148390
   17   18535881.300000000745        -0.000000063756
   18    2419299.990000000224        -0.000000205945
   19     474949.065000000002        -0.000000603073
   20     117392.346000000005        -0.000001616275
   21      34065.440100000000        -0.000004226152
   22      11133.885300000000        -0.000011091445
   23       3988.280760000000        -0.000029312916
   24       1534.678610000000        -0.000074718185
   25        624.475513000000        -0.000169391907
   26        265.735250000000        -0.000293139899
   27        116.709586000000        -0.000234524476
   28         50.306071000000         0.000394958523
   29         23.036081700000         0.000931163956
   30         10.586238100000         0.000360725623
   31          4.798113940000         0.000014760769
   32          2.133543170000         0.000004039092
   33          0.857316380000        -0.000001324382
   34          0.378404470000         0.000000613310
   35   18535881.300000000745        -0.000000173710
   36    2419299.990000000224        -0.000000561143
   37     474949.065000000002        -0.000001643803
   38     117392.346000000005        -0.000004407470
   39      34065.440100000000        -0.000011535590
   40      11133.885300000000        -0.000030324472
   41       3988.280760000000        -0.000080431645
   42       1534.678610000000        -0.000206586729
   43        624.475513000000        -0.000476545474
   44        265.735250000000        -0.000856776989
   45        116.709586000000        -0.000733028463
   46         50.306071000000         0.001529324697
   47         23.036081700000         0.005167291412
   48         10.586238100000         0.002078971405
   49          4.798113940000        -0.006750779262
   50          2.133543170000        -0.005745681181
   51          0.857316380000        -0.000312863780
   52          0.378404470000        -0.000058047361
   53          0.152386050000         0.000024005804
   54          0.060954420000        -0.000008006165
   55   18535881.300000000745        -0.000000404355
   56    2419299.990000000224        -0.000001306107
   57     474949.065000000002        -0.000003825278
   58     117392.346000000005        -0.000010256474
   59      34065.440100000000        -0.000026849703
   60      11133.885300000000        -0.000070597648
   61       3988.280760000000        -0.000187360974
   62       1534.678610000000        -0.000481798954
   63        624.475513000000        -0.001114468330
   64        265.735250000000        -0.002015687201
   65        116.709586000000        -0.001744740962
   66         50.306071000000         0.003765859666
   67         23.036081700000         0.013497523856
   68         10.586238100000         0.005611676676
   69          4.798113940000        -0.023336225176
   70          2.133543170000        -0.036387159707
   71          0.857316380000         0.014906854109
   72          0.378404470000         0.054625009739
   73          0.152386050000         0.020646387277
   74          0.060954420000        -0.000064002751
   75   18535881.300000000745         0.000002018389
   76    2419299.990000000224         0.000006523995
   77     474949.065000000002         0.000019069671
   78     117392.346000000005         0.000051394345
   79      34065.440100000000         0.000133207616
   80      11133.885300000000         0.000356362946
   81       3988.280760000000         0.000921432842
   82       1534.678610000000         0.002459275128
   83        624.475513000000         0.005412395054
   84        265.735250000000         0.010605808551
   85        116.709586000000         0.007435417980
   86         50.306071000000        -0.015771792653
   87         23.036081700000        -0.079766526148
   88         10.586238100000        -0.004448311177
   89          4.798113940000         0.090618970932
   90          2.133543170000         0.332057798658
   91          0.857316380000        -0.556988091135
   92          0.378404470000        -0.114267831360
   93          0.152386050000         0.410600477554
   94          0.060954420000         0.009465418507
   95   18535881.300000000745        -0.000005827137
   96    2419299.990000000224        -0.000018793206
   97     474949.065000000002        -0.000055343990
   98     117392.346000000005        -0.000146714045
   99      34065.440100000000        -0.000392758676
  100      11133.885300000000        -0.000994389822
  101       3988.280760000000        -0.002796065907
  102       1534.678610000000        -0.006646532858
  103        624.475513000000        -0.017181340014
  104        265.735250000000        -0.026505248843
  105        116.709586000000        -0.033245623457
  106         50.306071000000         0.081355941094
  107         23.036081700000         0.163514735961
  108         10.586238100000         0.173880859938
  109          4.798113940000        -0.755694563214
  110          2.133543170000        -0.400646920317
  111          0.857316380000         2.778725556657
  112          0.378404470000        -3.102865252096
  113          0.152386050000         1.045642070701
  114          0.060954420000         0.310177116577
  115   18535881.300000000745         0.000006250184
  116    2419299.990000000224         0.000019970579
  117     474949.065000000002         0.000060081365
  118     117392.346000000005         0.000151876870
  119      34065.440100000000         0.000445002687
  120      11133.885300000000         0.000957628714
  121       3988.280760000000         0.003404243151
  122       1534.678610000000         0.005697845506
  123        624.475513000000         0.023068888904
  124        265.735250000000         0.015281335365
  125        116.709586000000         0.071442288496
  126         50.306071000000        -0.192800649954
  127         23.036081700000         0.060280372646
  128         10.586238100000        -0.719461440404
  129          4.798113940000         2.243548139150
[...]
  BAS[ATNO][ 14].a[ 24] =       116.709586000000;     BAS[ATNO][ 14].d[ 24] =        -0.003418447205;
  BAS[ATNO][ 14].a[ 25] =        50.306071000000;     BAS[ATNO][ 14].d[ 25] =        -0.008588800037;
  BAS[ATNO][ 14].a[ 26] =        23.036081700000;     BAS[ATNO][ 14].d[ 26] =        -0.035902437457;
  BAS[ATNO][ 14].a[ 27] =        10.586238100000;     BAS[ATNO][ 14].d[ 27] =        -0.059743283723;
  BAS[ATNO][ 14].a[ 28] =         4.798113940000;     BAS[ATNO][ 14].d[ 28] =        -0.128162674156;
  BAS[ATNO][ 14].a[ 29] =         2.133543170000;     BAS[ATNO][ 14].d[ 29] =        -0.059381609401;
  BAS[ATNO][ 14].a[ 30] =         0.857316380000;     BAS[ATNO][ 14].d[ 30] =         0.763644064639;
  BAS[ATNO][ 14].a[ 31] =         0.342926550000;     BAS[ATNO][ 14].d[ 31] =        -0.471356911322;
  BAS[ATNO][ 14].a[ 32] =         0.137170620000;     BAS[ATNO][ 14].d[ 32] =        -0.255420512903;
  BAS[ATNO][ 14].a[ 33] =       624.475513000000;     BAS[ATNO][ 14].d[ 33] =        -0.000357526370;
  BAS[ATNO][ 14].a[ 34] =       265.735250000000;     BAS[ATNO][ 14].d[ 34] =         0.001009221200;
  BAS[ATNO][ 14].a[ 35] =       116.709586000000;     BAS[ATNO][ 14].d[ 35] =        -0.005543806766;
  BAS[ATNO][ 14].a[ 36] =        50.306071000000;     BAS[ATNO][ 14].d[ 36] =         0.006544329127;
  BAS[ATNO][ 14].a[ 37] =        23.036081700000;     BAS[ATNO][ 14].d[ 37] =        -0.051189538478;
  BAS[ATNO][ 14].a[ 38] =        10.586238100000;     BAS[ATNO][ 14].d[ 38] =         0.027792518501;
  BAS[ATNO][ 14].a[ 39] =         4.798113940000;     BAS[ATNO][ 14].d[ 39] =        -0.286198244175;
  BAS[ATNO][ 14].a[ 40] =         2.133543170000;     BAS[ATNO][ 14].d[ 40] =         0.396094918993;
  BAS[ATNO][ 14].a[ 41] =         0.857316380000;     BAS[ATNO][ 14].d[ 41] =         0.081543528481;
  BAS[ATNO][ 14].a[ 42] =         0.342926550000;     BAS[ATNO][ 14].d[ 42] =        -0.545164265325;
  BAS[ATNO][ 14].a[ 43] =         0.137170620000;     BAS[ATNO][ 14].d[ 43] =         0.510537352462;

  // Basis function  16 L = d
  InitBFNGauss(BAS[ATNO][ 15]);
  BAS[ATNO][ 15].l  = 2;
  BAS[ATNO][ 15].ng = 44;
  BAS[ATNO][ 15].a[  0] =       624.475513000000;     BAS[ATNO][ 15].d[  0] =        -0.000004071378;
  BAS[ATNO][ 15].a[  1] =       265.735250000000;     BAS[ATNO][ 15].d[  1] =        -0.000014196449;
  BAS[ATNO][ 15].a[  2] =       116.709586000000;     BAS[ATNO][ 15].d[  2] =        -0.000084893984;
  BAS[ATNO][ 15].a[  3] =        50.306071000000;     BAS[ATNO][ 15].d[  3] =        -0.000326168505;
  BAS[ATNO][ 15].a[  4] =        23.036081700000;     BAS[ATNO][ 15].d[  4] =        -0.000932271168;
  BAS[ATNO][ 15].a[  5] =        10.586238100000;     BAS[ATNO][ 15].d[  5] =        -0.001891345809;
  BAS[ATNO][ 15].a[  6] =         4.798113940000;     BAS[ATNO][ 15].d[  6] =        -0.002416162390;
  BAS[ATNO][ 15].a[  7] =         2.133543170000;     BAS[ATNO][ 15].d[  7] =        -0.001823668397;
  BAS[ATNO][ 15].a[  8] =         0.857316380000;     BAS[ATNO][ 15].d[  8] =        -0.000523048265;
  BAS[ATNO][ 15].a[  9] =         0.342926550000;     BAS[ATNO][ 15].d[  9] =        -0.000002193075;
  BAS[ATNO][ 15].a[ 10] =         0.137170620000;     BAS[ATNO][ 15].d[ 10] =        -0.000010374673;
  BAS[ATNO][ 15].a[ 11] =       624.475513000000;     BAS[ATNO][ 15].d[ 11] =        -0.000143211108;
  BAS[ATNO][ 15].a[ 12] =       265.735250000000;     BAS[ATNO][ 15].d[ 12] =        -0.000559576005;
  BAS[ATNO][ 15].a[ 13] =       116.709586000000;     BAS[ATNO][ 15].d[ 13] =        -0.003036510574;
  BAS[ATNO][ 15].a[ 14] =        50.306071000000;     BAS[ATNO][ 15].d[ 14] =        -0.012407216507;
  BAS[ATNO][ 15].a[ 15] =        23.036081700000;     BAS[ATNO][ 15].d[ 15] =        -0.033828530399;
  BAS[ATNO][ 15].a[ 16] =        10.586238100000;     BAS[ATNO][ 15].d[ 16] =        -0.075233027509;
  BAS[ATNO][ 15].a[ 17] =         4.798113940000;     BAS[ATNO][ 15].d[ 17] =        -0.088119285658;
  BAS[ATNO][ 15].a[ 18] =         2.133543170000;     BAS[ATNO][ 15].d[ 18] =        -0.082713783382;
  BAS[ATNO][ 15].a[ 19] =         0.857316380000;     BAS[ATNO][ 15].d[ 19] =         0.330731910737;
  BAS[ATNO][ 15].a[ 20] =         0.342926550000;     BAS[ATNO][ 15].d[ 20] =         0.456110341703;
  BAS[ATNO][ 15].a[ 21] =         0.137170620000;     BAS[ATNO][ 15].d[ 21] =         0.071419751446;
  BAS[ATNO][ 15].a[ 22] =       624.475513000000;     BAS[ATNO][ 15].d[ 22] =         0.000090985447;
  BAS[ATNO][ 15].a[ 23] =       265.735250000000;     BAS[ATNO][ 15].d[ 23] =         0.000129419008;
  BAS[ATNO][ 15].a[ 24] =       116.709586000000;     BAS[ATNO][ 15].d[ 24] =         0.001725133024;
  BAS[ATNO][ 15].a[ 25] =        50.306071000000;     BAS[ATNO][ 15].d[ 25] =         0.004334372214;
  BAS[ATNO][ 15].a[ 26] =        23.036081700000;     BAS[ATNO][ 15].d[ 26] =         0.018118308338;
  BAS[ATNO][ 15].a[ 27] =        10.586238100000;     BAS[ATNO][ 15].d[ 27] =         0.030149686547;
  BAS[ATNO][ 15].a[ 28] =         4.798113940000;     BAS[ATNO][ 15].d[ 28] =         0.064677804968;
  BAS[ATNO][ 15].a[ 29] =         2.133543170000;     BAS[ATNO][ 15].d[ 29] =         0.029967166157;
  BAS[ATNO][ 15].a[ 30] =         0.857316380000;     BAS[ATNO][ 15].d[ 30] =        -0.385376024674;
  BAS[ATNO][ 15].a[ 31] =         0.342926550000;     BAS[ATNO][ 15].d[ 31] =         0.237872146330;
  BAS[ATNO][ 15].a[ 32] =         0.137170620000;     BAS[ATNO][ 15].d[ 32] =         0.128898981136;
  BAS[ATNO][ 15].a[ 33] =       624.475513000000;     BAS[ATNO][ 15].d[ 33] =         0.000513612231;
  BAS[ATNO][ 15].a[ 34] =       265.735250000000;     BAS[ATNO][ 15].d[ 34] =        -0.001449818521;
  BAS[ATNO][ 15].a[ 35] =       116.709586000000;     BAS[ATNO][ 15].d[ 35] =         0.007964075399;
  BAS[ATNO][ 15].a[ 36] =        50.306071000000;     BAS[ATNO][ 15].d[ 36] =        -0.009401397416;
  BAS[ATNO][ 15].a[ 37] =        23.036081700000;     BAS[ATNO][ 15].d[ 37] =         0.073537437589;
  BAS[ATNO][ 15].a[ 38] =        10.586238100000;     BAS[ATNO][ 15].d[ 38] =        -0.039925942985;
  BAS[ATNO][ 15].a[ 39] =         4.798113940000;     BAS[ATNO][ 15].d[ 39] =         0.411144271759;
  BAS[ATNO][ 15].a[ 40] =         2.133543170000;     BAS[ATNO][ 15].d[ 40] =        -0.569018714586;
  BAS[ATNO][ 15].a[ 41] =         0.857316380000;     BAS[ATNO][ 15].d[ 41] =        -0.117143117808;
  BAS[ATNO][ 15].a[ 42] =         0.342926550000;     BAS[ATNO][ 15].d[ 42] =         0.783167505106;
  BAS[ATNO][ 15].a[ 43] =         0.137170620000;     BAS[ATNO][ 15].d[ 43] =        -0.733423465225;

  // Basis function  17 L = d
  InitBFNGauss(BAS[ATNO][ 16]);
  BAS[ATNO][ 16].l  = 2;
  BAS[ATNO][ 16].ng = 44;
  BAS[ATNO][ 16].a[  0] =       624.475513000000;     BAS[ATNO][ 16].d[  0] =        -0.000010758798;
  BAS[ATNO][ 16].a[  1] =       265.735250000000;     BAS[ATNO][ 16].d[  1] =        -0.000037514747;
  BAS[ATNO][ 16].a[  2] =       116.709586000000;     BAS[ATNO][ 16].d[  2] =        -0.000224336126;
  BAS[ATNO][ 16].a[  3] =        50.306071000000;     BAS[ATNO][ 16].d[  3] =        -0.000861914770;
  BAS[ATNO][ 16].a[  4] =        23.036081700000;     BAS[ATNO][ 16].d[  4] =        -0.002463567993;
  BAS[ATNO][ 16].a[  5] =        10.586238100000;     BAS[ATNO][ 16].d[  5] =        -0.004997965356;
  BAS[ATNO][ 16].a[  6] =         4.798113940000;     BAS[ATNO][ 16].d[  6] =        -0.006384816496;
  BAS[ATNO][ 16].a[  7] =         2.133543170000;     BAS[ATNO][ 16].d[  7] =        -0.004819124788;
  BAS[ATNO][ 16].a[  8] =         0.857316380000;     BAS[ATNO][ 16].d[  8] =        -0.001382178286;
  BAS[ATNO][ 16].a[  9] =         0.342926550000;     BAS[ATNO][ 16].d[  9] =        -0.000005795299;
  BAS[ATNO][ 16].a[ 10] =         0.137170620000;     BAS[ATNO][ 16].d[ 10] =        -0.000027415534;
  BAS[ATNO][ 16].a[ 11] =       624.475513000000;     BAS[ATNO][ 16].d[ 11] =         0.000047402468;
  BAS[ATNO][ 16].a[ 12] =       265.735250000000;     BAS[ATNO][ 16].d[ 12] =         0.000185218061;
  BAS[ATNO][ 16].a[ 13] =       116.709586000000;     BAS[ATNO][ 16].d[ 13] =         0.001005076334;
  BAS[ATNO][ 16].a[ 14] =        50.306071000000;     BAS[ATNO][ 16].d[ 14] =         0.004106753255;
  BAS[ATNO][ 16].a[ 15] =        23.036081700000;     BAS[ATNO][ 16].d[ 15] =         0.011197147019;
  BAS[ATNO][ 16].a[ 16] =        10.586238100000;     BAS[ATNO][ 16].d[ 16] =         0.024901917398;
  BAS[ATNO][ 16].a[ 17] =         4.798113940000;     BAS[ATNO][ 16].d[ 17] =         0.029167232070;
  BAS[ATNO][ 16].a[ 18] =         2.133543170000;     BAS[ATNO][ 16].d[ 18] =         0.027378026243;
  BAS[ATNO][ 16].a[ 19] =         0.857316380000;     BAS[ATNO][ 16].d[ 19] =        -0.109471318580;
  BAS[ATNO][ 16].a[ 20] =         0.342926550000;     BAS[ATNO][ 16].d[ 20] =        -0.150971221412;
  BAS[ATNO][ 16].a[ 21] =         0.137170620000;     BAS[ATNO][ 16].d[ 21] =        -0.023639733904;
  BAS[ATNO][ 16].a[ 22] =       624.475513000000;     BAS[ATNO][ 16].d[ 22] =        -0.000201711711;
  BAS[ATNO][ 16].a[ 23] =       265.735250000000;     BAS[ATNO][ 16].d[ 23] =        -0.000286917639;
  BAS[ATNO][ 16].a[ 24] =       116.709586000000;     BAS[ATNO][ 16].d[ 24] =        -0.003824562574;
  BAS[ATNO][ 16].a[ 25] =        50.306071000000;     BAS[ATNO][ 16].d[ 25] =        -0.009609159132;
  BAS[ATNO][ 16].a[ 26] =        23.036081700000;     BAS[ATNO][ 16].d[ 26] =        -0.040167687366;
  BAS[ATNO][ 16].a[ 27] =        10.586238100000;     BAS[ATNO][ 16].d[ 27] =        -0.066840852954;
  BAS[ATNO][ 16].a[ 28] =         4.798113940000;     BAS[ATNO][ 16].d[ 28] =        -0.143388543843;
  BAS[ATNO][ 16].a[ 29] =         2.133543170000;     BAS[ATNO][ 16].d[ 29] =        -0.066436211316;
  BAS[ATNO][ 16].a[ 30] =         0.857316380000;     BAS[ATNO][ 16].d[ 30] =         0.854365837510;
  BAS[ATNO][ 16].a[ 31] =         0.342926550000;     BAS[ATNO][ 16].d[ 31] =        -0.527354641980;
  BAS[ATNO][ 16].a[ 32] =         0.137170620000;     BAS[ATNO][ 16].d[ 32] =        -0.285764756813;
  BAS[ATNO][ 16].a[ 33] =       624.475513000000;     BAS[ATNO][ 16].d[ 33] =         0.000590852033;
  BAS[ATNO][ 16].a[ 34] =       265.735250000000;     BAS[ATNO][ 16].d[ 34] =        -0.001667850119;
  BAS[ATNO][ 16].a[ 35] =       116.709586000000;     BAS[ATNO][ 16].d[ 35] =         0.009161756388;
  BAS[ATNO][ 16].a[ 36] =        50.306071000000;     BAS[ATNO][ 16].d[ 36] =        -0.010815230710;
  BAS[ATNO][ 16].a[ 37] =        23.036081700000;     BAS[ATNO][ 16].d[ 37] =         0.084596397557;
  BAS[ATNO][ 16].a[ 38] =        10.586238100000;     BAS[ATNO][ 16].d[ 38] =        -0.045930223520;
  BAS[ATNO][ 16].a[ 39] =         4.798113940000;     BAS[ATNO][ 16].d[ 39] =         0.472974384302;
  BAS[ATNO][ 16].a[ 40] =         2.133543170000;     BAS[ATNO][ 16].d[ 40] =        -0.654590844806;
  BAS[ATNO][ 16].a[ 41] =         0.857316380000;     BAS[ATNO][ 16].d[ 41] =        -0.134759737217;
  BAS[ATNO][ 16].a[ 42] =         0.342926550000;     BAS[ATNO][ 16].d[ 42] =         0.900944495587;
  BAS[ATNO][ 16].a[ 43] =         0.137170620000;     BAS[ATNO][ 16].d[ 43] =        -0.843719676340;

  // Basis function  18 L = f
  InitBFNGauss(BAS[ATNO][ 17]);
  BAS[ATNO][ 17].l  = 3;
  BAS[ATNO][ 17].ng = 12;
  BAS[ATNO][ 17].a[  0] =         1.688892000000;     BAS[ATNO][ 17].d[  0] =        -0.053238718475;
  BAS[ATNO][ 17].a[  1] =         0.675557000000;     BAS[ATNO][ 17].d[  1] =        -0.399396500058;
  BAS[ATNO][ 17].a[  2] =         0.270223000000;     BAS[ATNO][ 17].d[  2] =        -0.131910428817;
  BAS[ATNO][ 17].a[  3] =         0.108089000000;     BAS[ATNO][ 17].d[  3] =        -0.002318679330;
  BAS[ATNO][ 17].a[  4] =         1.688892000000;     BAS[ATNO][ 17].d[  4] =        -0.269815065127;
  BAS[ATNO][ 17].a[  5] =         0.675557000000;     BAS[ATNO][ 17].d[  5] =        -0.313517844316;
  BAS[ATNO][ 17].a[  6] =         0.270223000000;     BAS[ATNO][ 17].d[  6] =         0.658370357763;
  BAS[ATNO][ 17].a[  7] =         0.108089000000;     BAS[ATNO][ 17].d[  7] =        -0.058365777597;
  BAS[ATNO][ 17].a[  8] =         1.688892000000;     BAS[ATNO][ 17].d[  8] =        -0.754417229691;
  BAS[ATNO][ 17].a[  9] =         0.675557000000;     BAS[ATNO][ 17].d[  9] =         0.846248858584;
  BAS[ATNO][ 17].a[ 10] =         0.270223000000;     BAS[ATNO][ 17].d[ 10] =        -0.417184648904;
  BAS[ATNO][ 17].a[ 11] =         0.108089000000;     BAS[ATNO][ 17].d[ 11] =        -0.138011857714;

  // Basis function  19 L = f
  InitBFNGauss(BAS[ATNO][ 18]);
  BAS[ATNO][ 18].l  = 3;
  BAS[ATNO][ 18].ng = 12;
  BAS[ATNO][ 18].a[  0] =         1.688892000000;     BAS[ATNO][ 18].d[  0] =         0.081853473903;
  BAS[ATNO][ 18].a[  1] =         0.675557000000;     BAS[ATNO][ 18].d[  1] =         0.614064198596;
  BAS[ATNO][ 18].a[  2] =         0.270223000000;     BAS[ATNO][ 18].d[  2] =         0.202809668452;
  BAS[ATNO][ 18].a[  3] =         0.108089000000;     BAS[ATNO][ 18].d[  3] =         0.003564923489;
  BAS[ATNO][ 18].a[  4] =         1.688892000000;     BAS[ATNO][ 18].d[  4] =        -0.056656666826;
  BAS[ATNO][ 18].a[  5] =         0.675557000000;     BAS[ATNO][ 18].d[  5] =        -0.065833522087;
  BAS[ATNO][ 18].a[  6] =         0.270223000000;     BAS[ATNO][ 18].d[  6] =         0.138246802455;
  BAS[ATNO][ 18].a[  7] =         0.108089000000;     BAS[ATNO][ 18].d[  7] =        -0.012255840547;
  BAS[ATNO][ 18].a[  8] =         1.688892000000;     BAS[ATNO][ 18].d[  8] =        -0.706233619100;
  BAS[ATNO][ 18].a[  9] =         0.675557000000;     BAS[ATNO][ 18].d[  9] =         0.792200085757;
  BAS[ATNO][ 18].a[ 10] =         0.270223000000;     BAS[ATNO][ 18].d[ 10] =        -0.390539628250;
  BAS[ATNO][ 18].a[ 11] =         0.108089000000;     BAS[ATNO][ 18].d[ 11] =        -0.129197226569;

  // Basis function  20 L = f
  InitBFNGauss(BAS[ATNO][ 19]);
  BAS[ATNO][ 19].l  = 3;
  BAS[ATNO][ 19].ng = 12;
  BAS[ATNO][ 19].a[  0] =         1.688892000000;     BAS[ATNO][ 19].d[  0] =         0.026544499792;
  BAS[ATNO][ 19].a[  1] =         0.675557000000;     BAS[ATNO][ 19].d[  1] =         0.199136654986;
  BAS[ATNO][ 19].a[  2] =         0.270223000000;     BAS[ATNO][ 19].d[  2] =         0.065769733957;
  BAS[ATNO][ 19].a[  3] =         0.108089000000;     BAS[ATNO][ 19].d[  3] =         0.001156079349;
  BAS[ATNO][ 19].a[  4] =         1.688892000000;     BAS[ATNO][ 19].d[  4] =        -0.366443650198;
  BAS[ATNO][ 19].a[  5] =         0.675557000000;     BAS[ATNO][ 19].d[  5] =        -0.425797659665;
  BAS[ATNO][ 19].a[  6] =         0.270223000000;     BAS[ATNO][ 19].d[  6] =         0.894151840511;
  BAS[ATNO][ 19].a[  7] =         0.108089000000;     BAS[ATNO][ 19].d[  7] =        -0.079268252050;
  BAS[ATNO][ 19].a[  8] =         1.688892000000;     BAS[ATNO][ 19].d[  8] =         0.664675125870;
  BAS[ATNO][ 19].a[  9] =         0.675557000000;     BAS[ATNO][ 19].d[  9] =        -0.745582874383;
  BAS[ATNO][ 19].a[ 10] =         0.270223000000;     BAS[ATNO][ 19].d[ 10] =         0.367558226547;
  BAS[ATNO][ 19].a[ 11] =         0.108089000000;     BAS[ATNO][ 19].d[ 11] =         0.121594583590;

  // Basis function  21 L = g
  InitBFNGauss(BAS[ATNO][ 20]);
  BAS[ATNO][ 20].l  = 4;
  BAS[ATNO][ 20].ng = 4;
  BAS[ATNO][ 20].a[  0] =         0.844446000000;     BAS[ATNO][ 20].d[  0] =         0.708358487053;
  BAS[ATNO][ 20].a[  1] =         0.337778000000;     BAS[ATNO][ 20].d[  1] =         0.295343625671;
  BAS[ATNO][ 20].a[  2] =         0.844446000000;     BAS[ATNO][ 20].d[  2] =         0.388834194612;
  BAS[ATNO][ 20].a[  3] =         0.337778000000;     BAS[ATNO][ 20].d[  3] =        -0.486853480657;

  // Basis function  22 L = g
  InitBFNGauss(BAS[ATNO][ 21]);
  BAS[ATNO][ 21].l  = 4;
  BAS[ATNO][ 21].ng = 4;
  BAS[ATNO][ 21].a[  0] =         0.844446000000;     BAS[ATNO][ 21].d[  0] =         0.322328137976;
  BAS[ATNO][ 21].a[  1] =         0.337778000000;     BAS[ATNO][ 21].d[  1] =         0.134391784196;
  BAS[ATNO][ 21].a[  2] =         0.844446000000;     BAS[ATNO][ 21].d[  2] =        -0.854514284188;
  BAS[ATNO][ 21].a[  3] =         0.337778000000;     BAS[ATNO][ 21].d[  3] =         1.069924557287;

-------
TIMINGS
-------

Total SCF time: 0 days 0 hours 1 min 34 sec 

Total time                  ....      94.642 sec
Sum of individual times     ....      94.267 sec  ( 99.6%)

Fock matrix formation       ....      93.417 sec  ( 98.7%)
  XC integration            ....       0.065 sec  (  0.1% of F)
    Basis function eval.    ....       0.031 sec  ( 47.8% of XC)
    Density eval.           ....       0.004 sec  (  5.9% of XC)
    XC-Functional eval.     ....       0.003 sec  (  3.9% of XC)
    XC-Potential eval.      ....       0.008 sec  ( 12.7% of XC)
Diagonalization             ....       0.003 sec  (  0.0%)
Density matrix formation    ....       0.001 sec  (  0.0%)
Population analysis         ....       0.001 sec  (  0.0%)
Initial guess               ....       0.087 sec  (  0.1%)
Orbital Transformation      ....       0.000 sec  (  0.0%)
Orbital Orthonormalization  ....       0.000 sec  (  0.0%)
DIIS solution               ....       0.000 sec  (  0.0%)
SOSCF solution              ....       0.001 sec  (  0.0%)
Grid generation             ....       0.756 sec  (  0.8%)

-------------------------   --------------------
FINAL SINGLE POINT ENERGY     -1250.424570294846
-------------------------   --------------------


                            ***************************************
                            *     ORCA property calculations      *
                            ***************************************

                                    ---------------------
                                    Active property flags
                                    ---------------------
   (+) Dipole Moment


------------------------------------------------------------------------------
                       ORCA ELECTRIC PROPERTIES CALCULATION
------------------------------------------------------------------------------

Dipole Moment Calculation                       ... on
Quadrupole Moment Calculation                   ... off
Polarizability Calculation                      ... off
GBWName                                         ... Kr_ano-rcc-qzp_1096.287912_.gbw
Electron density file                           ... Kr_ano-rcc-qzp_1096.287912_.scfp
The origin for moment calculation is the CENTER OF MASS  = ( 0.000000,  0.000000  0.000000)

-------------
DIPOLE MOMENT
-------------
                                X             Y             Z
Electronic contribution:      0.00000      -0.00000      -0.00000
Nuclear contribution   :      0.00000       0.00000       0.00000
                        -----------------------------------------
Total Dipole Moment    :      0.00000      -0.00000      -0.00000
                        -----------------------------------------
Magnitude (a.u.)       :      0.00000
Magnitude (Debye)      :      0.00000



--------------------
Rotational spectrum 
--------------------
 
Rotational constants in cm-1:     0.000000     0.000000     0.000000 
Rotational constants in MHz :     0.000000     0.000000     0.000000 

 Dipole components along the rotational axes: 
x,y,z [a.u.] :     0.000000    -0.000000    -0.000000 
x,y,z [Debye]:     0.000000    -0.000000    -0.000000 

 

Timings for individual modules:

Sum of individual times         ...       96.285 sec (=   1.605 min)
GTO integral calculation        ...        0.846 sec (=   0.014 min)   0.9 %
Relativistic integrals          ...        0.489 sec (=   0.008 min)   0.5 %
SCF iterations                  ...       94.950 sec (=   1.582 min)  98.6 %
                             ****ORCA TERMINATED NORMALLY****
TOTAL RUN TIME: 0 days 0 hours 1 minutes 36 seconds 692 msec
