
                                 *****************
                                 * O   R   C   A *
                                 *****************

           --- An Ab Initio, DFT and Semiempirical electronic structure package ---

                  #######################################################
                  #                        -***-                        #
                  #          Department of theory and spectroscopy      #
                  #               Directorship: Frank Neese             #
                  #        Max Planck Institute fuer Kohlenforschung    #
                  #                Kaiser Wilhelm Platz 1               #
                  #                 D-45470 Muelheim/Ruhr               #
                  #                      Germany                        #
                  #                                                     #
                  #                  All rights reserved                #
                  #                        -***-                        #
                  #######################################################


                         Program Version 4.2.1 -  RELEASE  -


 With contributions from (in alphabetic order):
   Daniel Aravena         : Magnetic Suceptibility
   Michael Atanasov       : Ab Initio Ligand Field Theory (pilot matlab implementation)
   Alexander A. Auer      : GIAO ZORA, VPT2
   Ute Becker             : Parallelization
   Giovanni Bistoni       : ED, misc. LED, open-shell LED, HFLD
   Martin Brehm           : Molecular dynamics
   Dmytro Bykov           : SCF Hessian
   Vijay G. Chilkuri      : MRCI spin determinant printing, contributions to CSF-ICE
   Dipayan Datta          : RHF DLPNO-CCSD density
   Achintya Kumar Dutta   : EOM-CC, STEOM-CC
   Dmitry Ganyushin       : Spin-Orbit,Spin-Spin,Magnetic field MRCI
   Miquel Garcia          : C-PCM Hessian, Gaussian charge scheme
   Yang Guo               : DLPNO-NEVPT2, CIM, IAO-localization
   Andreas Hansen         : Spin unrestricted coupled pair/coupled cluster methods
   Benjamin Helmich-Paris : CASSCF linear response (MC-RPA)
   Lee Huntington         : MR-EOM, pCC
   Robert Izsak           : Overlap fitted RIJCOSX, COSX-SCS-MP3, EOM
   Christian Kollmar      : KDIIS, OOCD, Brueckner-CCSD(T), CCSD density
   Simone Kossmann        : Meta GGA functionals, TD-DFT gradient, OOMP2, MP2 Hessian
   Martin Krupicka        : AUTO-CI
   Lucas Lang             : DCDCAS
   Dagmar Lenk            : GEPOL surface, SMD
   Dimitrios Liakos       : Extrapolation schemes; Compound Job, initial MDCI parallelization
   Dimitrios Manganas     : Further ROCIS development; embedding schemes
   Dimitrios Pantazis     : SARC Basis sets
   Taras Petrenko         : DFT Hessian,TD-DFT gradient, ASA, ECA, R-Raman, ABS, FL, XAS/XES, NRVS
   Peter Pinski           : DLPNO-MP2, DLPNO-MP2 Gradient
   Christoph Reimann      : Effective Core Potentials
   Marius Retegan         : Local ZFS, SOC
   Christoph Riplinger    : Optimizer, TS searches, QM/MM, DLPNO-CCSD(T), (RO)-DLPNO pert. Triples
   Tobias Risthaus        : Range-separated hybrids, TD-DFT gradient, RPA, STAB
   Michael Roemelt        : Original ROCIS implementation
   Masaaki Saitow         : Open-shell DLPNO-CCSD energy and density
   Barbara Sandhoefer     : DKH picture change effects
   Avijit Sen             : IP-ROCIS
   Kantharuban Sivalingam : CASSCF convergence, NEVPT2, FIC-MRCI
   Bernardo de Souza      : ESD, SOC TD-DFT
   Georgi Stoychev        : AutoAux, RI-MP2 NMR
   Willem Van den Heuvel  : Paramagnetic NMR
   Boris Wezisla          : Elementary symmetry handling
   Frank Wennmohs         : Technical directorship


 We gratefully acknowledge several colleagues who have allowed us to
 interface, adapt or use parts of their codes:
   Stefan Grimme, W. Hujo, H. Kruse,             : VdW corrections, initial TS optimization,
                  C. Bannwarth                     DFT functionals, gCP, sTDA/sTD-DF
   Ed Valeev, F. Pavosevic, A. Kumar             : LibInt (2-el integral package), F12 methods
   Garnet Chan, S. Sharma, J. Yang, R. Olivares  : DMRG
   Ulf Ekstrom                                   : XCFun DFT Library
   Mihaly Kallay                                 : mrcc  (arbitrary order and MRCC methods)
   Andreas Klamt, Michael Diedenhofen            : otool_cosmo (COSMO solvation model)
   Jiri Pittner, Ondrej Demel                    : Mk-CCSD
   Frank Weinhold                                : gennbo (NPA and NBO analysis)
   Christopher J. Cramer and Donald G. Truhlar   : smd solvation model
   Lars Goerigk                                  : TD-DFT with DH, B97 family of functionals
   V. Asgeirsson, H. Jonsson                     : NEB implementation
   FAccTs GmbH                                   : IRC, NEB, NEB-TS, Multilevel, MM, QM/MM, CI optimization
   S Lehtola, MJT Oliveira, MAL Marques          : LibXC Library


 Your calculation uses the libint2 library for the computation of 2-el integrals
 For citations please refer to: http://libint.valeyev.net

 Your ORCA version has been built with support for libXC version: 4.2.3
 For citations please refer to: https://tddft.org/programs/libxc/

 This ORCA versions uses:
   CBLAS   interface :  Fast vector & matrix operations
   LAPACKE interface :  Fast linear algebra routines
   SCALAPACK package :  Parallel linear algebra routines


----- Orbital basis set information -----
Your calculation utilizes the basis: ANO-RCC-QZP
   H, He:       P.-O. Widmark, P.-A. Malmqvist, and B. O. Roos, Theor. Chim. Acta 77, 291 (1990).
   s block:     B. O. Roos, V. Veryazov and P.-O. Widmark, Theor. Chem. Acc. 111, 345 (2004).
   p block:     B. O. Roos, R. Lindh, P.-A. Malmqvist, V. Veryazov, and P.-O. Widmark, J. Phys. Chem. A 108, 2851 (2004).
   d block:     B. O. Roos, R. Lindh, P.-A. Malmqvist, V. Veryazov, and P.-O. Widmark, J. Phys. Chem. A 109, 6575 (2005).
   actinides:   B. O. Roos, R. Lindh, P.-A. Malmqvist, V. Veryazov, and P.-O. Widmark, Chem. Phys. Letters 409, 295 (2005).
   lanthanides: B. O. Roos, R. Lindh, P.-A. Malmqvist, V. Veryazov, P.-O. Widmark and A. C. Borin, J. Phys. Chem. A 112, 11431 (2008).

================================================================================
                                        WARNINGS
                       Please study these warnings very carefully!
================================================================================


INFO   : the flag for use of LIBINT has been found!

================================================================================
                                       INPUT FILE
================================================================================
NAME = Kr_ano-rcc-qzp_137.035989_.inp
|  1> ! LDA ano-rcc-qzp nori grid5 finalgrid6 verytightscf
|  2> %Pal NProcs 18 End
|  3> 
|  4> % REL
|  5>   Method ZORA
|  6>   ModelPot 1, 0, 0, 0
|  7>   velit 137.035989
|  8> END
|  9> 
| 10> *xyz 34 1
| 11> Kr 0.0 0.0 0.0
| 12> **                         ****END OF INPUT****
================================================================================

                       ****************************
                       * Single Point Calculation *
                       ****************************

---------------------------------
CARTESIAN COORDINATES (ANGSTROEM)
---------------------------------
  Kr     0.000000    0.000000    0.000000

----------------------------
CARTESIAN COORDINATES (A.U.)
----------------------------
  NO LB      ZA    FRAG     MASS         X           Y           Z
   0 Kr   36.0000    0    83.800    0.000000    0.000000    0.000000

--------------------------------
INTERNAL COORDINATES (ANGSTROEM)
--------------------------------
 Kr     0   0   0     0.000000000000     0.00000000     0.00000000

---------------------------
INTERNAL COORDINATES (A.U.)
---------------------------
 Kr     0   0   0     0.000000000000     0.00000000     0.00000000

---------------------
BASIS SET INFORMATION
---------------------
There are 1 groups of distinct atoms

 Group   1 Type Kr  : 140s102p44d12f4g contracted to 7s6p4d3f2g pattern {20202020202020/171717171717/11111111/444/22}

Atom   0Kr   basis set group =>   1


           ************************************************************
           *        Program running with 18 parallel MPI-processes    *
           *              working on a common directory               *
           ************************************************************


------------------------------------------------------------------------------
                       ORCA GTO INTEGRAL CALCULATION
                     -- ANO INTEGRAL GENERATION BRANCH --
------------------------------------------------------------------------------


Gathering ANO information                         ... done
Calculation Information:
Number of atoms                                   ... 1
Number of basis functions                         ... 84
Highest angular momentum                          ... 4
Number of primitive shells                        ... 54
Total number of shells                            ... 22
Maximum number of shells                          ... 22

Getting memory                                    ... done
Making prescreening integrals                     ... done
Gathering atom contracted prescreening            ... done
Making one-electron integrals                     ... done

Timings:

Total time                                        ...    0.6 sec
Prescreening matrix                               ...    0.5 sec
One-electron matrix                               ...    0.0 sec
Two-index integrals + Cholesky                    ...    0.0 sec


           ************************************************************
           *        Program running with 18 parallel MPI-processes    *
           *              working on a common directory               *
           ************************************************************
------------------------------------------------------------------------------
                          ORCA RELATIVISTIC HAMILTONIAN
------------------------------------------------------------------------------

Relativistic Method            ... ZORA(MP)
Treatment of potential         ... Van Wuellen
Nucleus model                  ... Point Nucleus
Speed of light used            ... 137.03598900000000


            *************************************************
            *         ZERO ORDER REGULAR APPROXIMATION      *
            *                     ZORA(MP)                  *
            *            Programmed by FN according to      *
            *                   C. van Wuellen              *
            *       J. Chem. Phys. (1998) vol 109, 392-399  *
            *************************************************

Terms included in model potential: +V(e,N)
Basis function cutoff value   ... 1.000000e-12
Loading the fitted atomic densities  (DKH4)  ... done
Calculating the cutoffs                      ... done
Number of fit functions                      ... 27
Setting up the integration grid ... done


           ************************************************************
           *        Program running with 18 parallel MPI-processes    *
           *              working on a common directory               *
           ************************************************************
-------------------------------------------------------------------------------
                                 ORCA SCF
-------------------------------------------------------------------------------

------------
SCF SETTINGS
------------
Hamiltonian:
 Density Functional     Method          .... DFT(GTOs)
 Exchange Functional    Exchange        .... Slater
   X-Alpha parameter    XAlpha          ....  0.666667
 Correlation Functional Correlation     .... VWN-5
 Gradients option       PostSCFGGA      .... off
   Density functional embedding theory  .... OFF

Relativistic Settings:
 Scalar relativistic method             .... ZORA
 Speed of light used       Velit        ....       137.035989
Orbital energies will be scaled


General Settings:
 Integral files         IntName         .... Kr_ano-rcc-qzp_137.035989_
 Hartree-Fock type      HFTyp           .... RHF
 Total Charge           Charge          ....   34
 Multiplicity           Mult            ....    1
 Number of Electrons    NEL             ....    2
 Basis Dimension        Dim             ....   84
 Nuclear Repulsion      ENuc            ....      0.0000000000 Eh

Convergence Acceleration:
 DIIS                   CNVDIIS         .... on
   Start iteration      DIISMaxIt       ....    12
   Startup error        DIISStart       ....  0.200000
   # of expansion vecs  DIISMaxEq       ....     5
   Bias factor          DIISBfac        ....   1.050
   Max. coefficient     DIISMaxC        ....  10.000
 Newton-Raphson         CNVNR           .... off
 SOSCF                  CNVSOSCF        .... on
   Start iteration      SOSCFMaxIt      ....   150
   Startup grad/error   SOSCFStart      ....  0.003300
 Level Shifting         CNVShift        .... on
   Level shift para.    LevelShift      ....    0.2500
   Turn off err/grad.   ShiftErr        ....    0.0010
 Zerner damping         CNVZerner       .... off
 Static damping         CNVDamp         .... on
   Fraction old density DampFac         ....    0.7000
   Max. Damping (<1)    DampMax         ....    0.9800
   Min. Damping (>=0)   DampMin         ....    0.0000
   Turn off err/grad.   DampErr         ....    0.1000
 Fernandez-Rico         CNVRico         .... off

SCF Procedure:
 Maximum # iterations   MaxIter         ....   125
 SCF integral mode      SCFMode         .... Direct
   Integral package                     .... LIBINT
 Reset frequency        DirectResetFreq ....    20
 Integral Threshold     Thresh          ....  1.000e-12 Eh
 Primitive CutOff       TCut            ....  1.000e-14 Eh

Convergence Tolerance:
 Convergence Check Mode ConvCheckMode   .... Total+1el-Energy
 Convergence forced     ConvForced      .... 0
 Energy Change          TolE            ....  1.000e-09 Eh
 1-El. energy change                    ....  1.000e-06 Eh
 Orbital Gradient       TolG            ....  2.000e-06
 Orbital Rotation angle TolX            ....  2.000e-06
 DIIS Error             TolErr          ....  1.000e-08


Diagonalization of the overlap matrix:
Smallest eigenvalue                        ... 1.000e+00
Time for diagonalization                   ...    0.002 sec
Threshold for overlap eigenvalues          ... 1.000e-08
Number of eigenvalues below threshold      ... 0
Time for construction of square roots      ...    0.001 sec
Total time needed                          ...    0.004 sec

-------------------
DFT GRID GENERATION
-------------------

General Integration Accuracy     IntAcc      ...  5.010
Radial Grid Type                 RadialGrid  ... Gauss-Chebyshev
Angular Grid (max. acc.)         AngularGrid ... Lebedev-434
Angular grid pruning method      GridPruning ... 3 (G Style)
Weight generation scheme         WeightScheme... Becke
Basis function cutoff            BFCut       ...    1.0000e-12
Integration weight cutoff        WCut        ...    1.0000e-14
Grids for H and He will be reduced by one unit

# of grid points (after initial pruning)     ...  16106 (   0.0 sec)
# of grid points (after weights+screening)   ...  16106 (   0.0 sec)
Grid point division into batches done        ...    0.2 sec
Reduced shell lists constructed in    0.2 sec

Total number of grid points                  ...    16106
Total number of batches                      ...      252
Average number of points per batch           ...       63
Average number of grid points per atom       ...    16106
Average number of shells per batch           ...    16.53 (75.15%)
Average number of basis functions per batch  ...    57.07 (67.94%)
Average number of large shells per batch     ...     7.73 (46.77%)
Average number of large basis fcns per batch ...    25.33 (44.39%)
Maximum spatial batch extension              ...  17.34, 17.34, 17.34 au
Average spatial batch extension              ...   0.86,  0.87,  0.87 au

Time for grid setup =    0.244 sec

------------------------------
INITIAL GUESS: MODEL POTENTIAL
------------------------------
Loading ZORA relativistic densities                ... done
Calculating cut-offs                               ... done
Setting up the integral package                    ... done
Initializing the effective Hamiltonian             ... done
Starting the Coulomb interaction                   ... done (   0.0 sec)
Reading the grid                                   ... done
Mapping shells                                     ... done
Starting the XC term evaluation                    ... done (   0.0 sec)
  promolecular density results
     # of electrons  =     36.000000565
     EX              =    -91.042004939
     EC              =     -3.295965580
     EX+EC           =    -94.337970520
Transforming the Hamiltonian                       ... done (   0.0 sec)
Diagonalizing the Hamiltonian                      ... done (   0.0 sec)
Back transforming the eigenvectors                 ... done (   0.0 sec)
Now organizing SCF variables                       ... done
                      ------------------
                      INITIAL GUESS DONE (   0.3 sec)
                      ------------------
--------------
SCF ITERATIONS
--------------
ITER       Energy         Delta-E        Max-DP      RMS-DP      [F,P]     Damp
               ***  Starting incremental Fock matrix formation  ***
  0  -1311.6765140753   0.000000000000 0.00350935  0.00004450  5.6382591 0.7000
                      *** Initiating the SOSCF procedure ***
                      *** Re-Reading the Fockian *** 
                      *** Removing any level shift *** 
ITER      Energy       Delta-E        Grad      Rot      Max-DP    RMS-DP
  1  -1311.68808303  -0.0115689575  0.002097  0.002097  0.008180  0.000104
               *** Restarting incremental Fock matrix formation ***
  2  -1311.71496347  -0.0268804415  0.008326  0.000017  0.000033  0.000000
  3  -1311.71496380  -0.0000003276  0.000034  0.000000  0.000000  0.000000
                 **** Energy Check signals convergence ****
              ***Rediagonalizing the Fockian in SOSCF/NRSCF***

               *****************************************************
               *                     SUCCESS                       *
               *           SCF CONVERGED AFTER   4 CYCLES          *
               *****************************************************

Setting up the final grid:

General Integration Accuracy     IntAcc      ...  5.340
Radial Grid Type                 RadialGrid  ... Gauss-Chebyshev
Angular Grid (max. acc.)         AngularGrid ... Lebedev-590
Angular grid pruning method      GridPruning ... 3 (G Style)
Weight generation scheme         WeightScheme... Becke
Basis function cutoff            BFCut       ...    1.0000e-12
Integration weight cutoff        WCut        ...    1.0000e-14
Grids for H and He will be reduced by one unit

# of grid points (after initial pruning)     ...  24180 (   0.0 sec)
# of grid points (after weights+screening)   ...  24180 (   0.0 sec)
Grid point division into batches done        ...    0.4 sec
Reduced shell lists constructed in    0.4 sec

Total number of grid points                  ...    24180
Total number of batches                      ...      378
Average number of points per batch           ...       63
Average number of grid points per atom       ...    24180
Average number of shells per batch           ...    14.18 (64.46%)
Average number of basis functions per batch  ...    46.64 (55.52%)
Average number of large shells per batch     ...     5.73 (40.38%)
Average number of large basis fcns per batch ...    15.27 (32.75%)
Maximum spatial batch extension              ...  17.58, 17.58, 17.58 au
Average spatial batch extension              ...   0.77,  0.77,  0.77 au

Final grid set up in    0.4 sec
Final integration                            ... done (   0.0 sec)
Change in XC energy                          ...    -0.000015357
Integrated number of electrons               ...     2.000000076
Previous integrated no of electrons          ...     1.999999420

----------------
TOTAL SCF ENERGY
----------------

Total Energy       :        -1311.71497916 Eh          -35693.57921 eV

Components:
Nuclear Repulsion  :            0.00000000 Eh               0.00000 eV
Electronic Energy  :        -1311.71497916 Eh          -35693.57921 eV
One Electron Energy:        -1337.81133456 Eh          -36403.69714 eV
Two Electron Energy:           26.09635540 Eh             710.11793 eV

Virial components:
Potential Energy   :        -2705.20013544 Eh          -73612.23806 eV
Kinetic Energy     :         1393.48515628 Eh           37918.65885 eV
Virial Ratio       :            1.94131966


DFT components:
N(Alpha)           :        1.000000038213 electrons
N(Beta)            :        1.000000038213 electrons
N(Total)           :        2.000000076426 electrons
E(X)               :      -19.904305175854 Eh       
E(C)               :       -0.280087417063 Eh       
E(XC)              :      -20.184392592917 Eh       
DFET-embed. en.    :        0.000000000000 Eh       

---------------
SCF CONVERGENCE
---------------

  Last Energy change         ...   -6.3665e-12  Tolerance :   1.0000e-09
  Last MAX-Density change    ...    0.0000e+00  Tolerance :   1.0000e-08
  Last RMS-Density change    ...    0.0000e+00  Tolerance :   1.0000e-09
  Last Orbital Gradient      ...    2.9093e-11  Tolerance :   2.0000e-06
  Last Orbital Rotation      ...    0.0000e+00  Tolerance :   2.0000e-06

================================================================================
                                        WARNING
Number of found core electrons (2) does not match given number of chemical core electrons (18)
================================================================================
             **** THE GBW FILE WAS UPDATED (Kr_ano-rcc-qzp_137.035989_.gbw) ****
             **** DENSITY FILE WAS UPDATED (Kr_ano-rcc-qzp_137.035989_.scfp) ****
             **** ENERGY FILE WAS UPDATED (Kr_ano-rcc-qzp_137.035989_.en.tmp) ****
             **** THE GBW FILE WAS UPDATED (Kr_ano-rcc-qzp_137.035989_.gbw) ****
             **** DENSITY FILE WAS UPDATED (Kr_ano-rcc-qzp_137.035989_.scfp) ****
----------------
ORBITAL ENERGIES
----------------

  NO   OCC          E(Eh)            E(eV) 
   0   2.0000    -636.044337    -17307.6463 
   1   0.0000    -152.096052     -4138.7440 
   2   0.0000    -148.459828     -4039.7973 
   3   0.0000    -148.459828     -4039.7973 
   4   0.0000    -148.459828     -4039.7973 
   5   0.0000     -63.635847     -1731.6194 
   6   0.0000     -61.682001     -1678.4526 
   7   0.0000     -61.682001     -1678.4526 
   8   0.0000     -61.682001     -1678.4526 
   9   0.0000     -57.014566     -1551.4452 
  10   0.0000     -57.014566     -1551.4452 
  11   0.0000     -57.014566     -1551.4452 
  12   0.0000     -57.014566     -1551.4452 
  13   0.0000     -57.014566     -1551.4452 
  14   0.0000     -32.191456      -875.9740 
  15   0.0000     -31.097803      -846.2142 
  16   0.0000     -31.097803      -846.2142 
  17   0.0000     -31.097803      -846.2142 
  18   0.0000     -24.550259      -668.0465 
  19   0.0000     -24.550259      -668.0465 
  20   0.0000     -24.550259      -668.0465 
  21   0.0000     -24.550259      -668.0465 
  22   0.0000     -24.550259      -668.0465 
  23   0.0000     -24.453122      -665.4033 
  24   0.0000     -24.453122      -665.4033 
  25   0.0000     -24.453122      -665.4033 
  26   0.0000     -24.453122      -665.4033 
  27   0.0000     -24.453122      -665.4033 
  28   0.0000     -24.453122      -665.4033 
  29   0.0000     -24.453122      -665.4033 
  30   0.0000     -18.936414      -515.2860 
  31   0.0000     -18.480609      -502.8829 
  32   0.0000     -18.480609      -502.8829 
  33   0.0000     -18.480609      -502.8829 
  34   0.0000     -15.768670      -429.0873 
  35   0.0000     -15.768670      -429.0873 
  36   0.0000     -15.768670      -429.0873 
  37   0.0000     -15.768670      -429.0873 
  38   0.0000     -15.768670      -429.0873 
  39   0.0000     -15.768670      -429.0873 
  40   0.0000     -15.768670      -429.0873 
  41   0.0000     -15.768670      -429.0873 
  42   0.0000     -15.768670      -429.0873 
  43   0.0000     -14.820342      -403.2820 
  44   0.0000     -14.820342      -403.2820 
  45   0.0000     -14.820342      -403.2820 
  46   0.0000     -14.820342      -403.2820 
  47   0.0000     -14.820342      -403.2820 
  48   0.0000     -14.820342      -403.2820 
  49   0.0000     -14.820342      -403.2820 
  50   0.0000     -14.344699      -390.3391 
  51   0.0000     -14.344699      -390.3391 
  52   0.0000     -14.344699      -390.3391 
  53   0.0000     -14.344699      -390.3391 
  54   0.0000     -14.344699      -390.3391 
  55   0.0000     -12.142593      -330.4167 
  56   0.0000     -11.872039      -323.0546 
  57   0.0000     -11.872039      -323.0546 
  58   0.0000     -11.872039      -323.0546 
  59   0.0000      -9.827394      -267.4170 
  60   0.0000      -9.827394      -267.4170 
  61   0.0000      -9.827394      -267.4170 
  62   0.0000      -9.827394      -267.4170 
  63   0.0000      -9.827394      -267.4170 
  64   0.0000      -9.827394      -267.4170 
  65   0.0000      -9.827394      -267.4170 
  66   0.0000      -9.827394      -267.4170 
  67   0.0000      -9.827394      -267.4170 
  68   0.0000      -9.656109      -262.7561 
  69   0.0000      -9.656109      -262.7561 
  70   0.0000      -9.656109      -262.7561 
  71   0.0000      -9.656109      -262.7561 
  72   0.0000      -9.656109      -262.7561 
  73   0.0000      -9.656109      -262.7561 
  74   0.0000      -9.656109      -262.7561 
  75   0.0000      -9.272516      -252.3180 
  76   0.0000      -9.272516      -252.3180 
  77   0.0000      -9.272515      -252.3180 
  78   0.0000      -9.272515      -252.3180 
  79   0.0000      -9.272515      -252.3180 
  80   0.0000      -7.953519      -216.4262 
  81   0.0000      -7.493586      -203.9108 
  82   0.0000      -7.493586      -203.9108 
  83   0.0000      -7.493586      -203.9108 

                    ********************************
                    * MULLIKEN POPULATION ANALYSIS *
                    ********************************

-----------------------
MULLIKEN ATOMIC CHARGES
-----------------------
   0 Kr:   34.000000
Sum of atomic charges:   34.0000000

--------------------------------
MULLIKEN REDUCED ORBITAL CHARGES
--------------------------------
  0 Krs       :     2.000000  s :     2.000000
      pz      :     0.000000  p :     0.000000
      px      :     0.000000
      py      :     0.000000
      dz2     :     0.000000  d :     0.000000
      dxz     :     0.000000
      dyz     :     0.000000
      dx2y2   :     0.000000
      dxy     :     0.000000
      f0      :     0.000000  f :     0.000000
      f+1     :     0.000000
      f-1     :     0.000000
      f+2     :     0.000000
      f-2     :     0.000000
      f+3     :     0.000000
      f-3     :     0.000000
      g0      :     0.000000  g :     0.000000
      g+1     :     0.000000
      g-1     :     0.000000
      g+2     :     0.000000
      g-2     :     0.000000
      g+3     :     0.000000
      g-3     :     0.000000
      g+4     :     0.000000
      g-4     :     0.000000


                     *******************************
                     * LOEWDIN POPULATION ANALYSIS *
                     *******************************

----------------------
LOEWDIN ATOMIC CHARGES
----------------------
   0 Kr:   34.000000

-------------------------------
LOEWDIN REDUCED ORBITAL CHARGES
-------------------------------
  0 Krs       :     2.000000  s :     2.000000
      pz      :     0.000000  p :     0.000000
      px      :     0.000000
      py      :     0.000000
      dz2     :     0.000000  d :     0.000000
      dxz     :     0.000000
      dyz     :     0.000000
      dx2y2   :     0.000000
      dxy     :     0.000000
      f0      :     0.000000  f :     0.000000
      f+1     :     0.000000
      f-1     :     0.000000
      f+2     :     0.000000
      f-2     :     0.000000
      f+3     :     0.000000
      f-3     :     0.000000
      g0      :     0.000000  g :     0.000000
      g+1     :     0.000000
      g-1     :     0.000000
      g+2     :     0.000000
      g-2     :     0.000000
      g+3     :     0.000000
      g-3     :     0.000000
      g+4     :     0.000000
      g-4     :     0.000000


                      *****************************
                      * MAYER POPULATION ANALYSIS *
                      *****************************

  NA   - Mulliken gross atomic population
  ZA   - Total nuclear charge
  QA   - Mulliken gross atomic charge
  VA   - Mayer's total valence
  BVA  - Mayer's bonded valence
  FA   - Mayer's free valence

  ATOM       NA         ZA         QA         VA         BVA        FA
  0 Kr     2.0000    36.0000    34.0000    -0.0000     0.0000    -0.0000

  Mayer bond orders larger than 0.100000


--------------------------
ATOM BASIS FOR ELEMENT Kr
--------------------------
 NewGTO Kr
 S 138
    1   18535881.300000000745         0.000137352689
    2    2419299.990000000224         0.000443196409
    3     474949.065000000002         0.001295311053
    4     117392.346000000005         0.003458955886
    5      34065.440100000000         0.008981151950
    6      11133.885300000000         0.023268831442
    7       3988.280760000000         0.059851514213
    8       1534.678610000000         0.144126498408
    9        624.475513000000         0.287670787807
   10        265.735250000000         0.382489210795
   11        116.709586000000         0.227400005911
   12         50.306071000000         0.027103937307
   13         23.036081700000         0.000594198372
   14         10.586238100000        -0.000552260604
   15          4.798113940000         0.000380659738
   16          2.133543170000        -0.000271705538
   17          0.857316380000         0.000151521935
   18          0.378404470000        -0.000084025527
   19          0.152386050000         0.000035798095
   20          0.060954420000        -0.000009809478
   21   18535881.300000000745         0.000000431723
   22    2419299.990000000224         0.000001394542
   23     474949.065000000002         0.000004083671
   24     117392.346000000005         0.000010944502
   25      34065.440100000000         0.000028617109
   26      11133.885300000000         0.000075104994
   27       3988.280760000000         0.000198490495
   28       1534.678610000000         0.000505949303
   29        624.475513000000         0.001147026224
   30        265.735250000000         0.001984977662
   31        116.709586000000         0.001588067155
   32         50.306071000000        -0.002674435823
   33         23.036081700000        -0.006305315857
   34         10.586238100000        -0.002442629975
   35          4.798113940000        -0.000099951584
   36          2.133543170000        -0.000027350445
   37          0.857316380000         0.000008967963
   38          0.378404470000        -0.000004152991
   39          0.152386050000         0.000001930972
   40   18535881.300000000745         0.000000050309
   41    2419299.990000000224         0.000000162514
   42     474949.065000000002         0.000000476065
   43     117392.346000000005         0.000001276457
   44      34065.440100000000         0.000003340847
   45      11133.885300000000         0.000008782335
   46       3988.280760000000         0.000023293979
   47       1534.678610000000         0.000059830021
   48        624.475513000000         0.000138013346
   49        265.735250000000         0.000248133001
   50        116.709586000000         0.000212293928
   51         50.306071000000        -0.000442910969
   52         23.036081700000        -0.001496510226
   53         10.586238100000        -0.000602095318
   54          4.798113940000         0.001955107501
   55          2.133543170000         0.001664018913
   56          0.857316380000         0.000090609143
   57          0.378404470000         0.000016811219
   58          0.152386050000        -0.000006952372
   59          0.060954420000         0.000002318682
   60   18535881.300000000745         0.000000004906
   61    2419299.990000000224         0.000000015847
   62     474949.065000000002         0.000000046412
   63     117392.346000000005         0.000000124442
   64      34065.440100000000         0.000000325768
   65      11133.885300000000         0.000000856562
   66       3988.280760000000         0.000002273253
   67       1534.678610000000         0.000005845672
   68        624.475513000000         0.000013521857
   69        265.735250000000         0.000024456356
   70        116.709586000000         0.000021168962
   71         50.306071000000        -0.000045691218
   72         23.036081700000        -0.000163765609
   73         10.586238100000        -0.000068086536
   74          4.798113940000         0.000283138683
   75          2.133543170000         0.000441485819
   76          0.857316380000        -0.000180865029
   77          0.378404470000        -0.000662765859
   78          0.152386050000        -0.000250502850
   79   18535881.300000000745         0.000000006309
   80    2419299.990000000224         0.000000020391
   81     474949.065000000002         0.000000059604
   82     117392.346000000005         0.000000160637
   83      34065.440100000000         0.000000416351
   84      11133.885300000000         0.000001113841
   85       3988.280760000000         0.000002880012
   86       1534.678610000000         0.000007686661
   87        624.475513000000         0.000016916874
   88        265.735250000000         0.000033149303
   89        116.709586000000         0.000023239994
   90         50.306071000000        -0.000049296000
   91         23.036081700000        -0.000249316660
   92         10.586238100000        -0.000013903553
   93          4.798113940000         0.000283236845
   94          2.133543170000         0.001037873221
   95          0.857316380000        -0.001740910850
   96          0.378404470000        -0.000357153251
   97          0.152386050000         0.001283364649
   98          0.060954420000         0.000029584923
   99   18535881.300000000745         0.000000009855
  100    2419299.990000000224         0.000000031784
  101     474949.065000000002         0.000000093599
  102     117392.346000000005         0.000000248127
  103      34065.440100000000         0.000000664245
  104      11133.885300000000         0.000001681741
  105       3988.280760000000         0.000004728789
  106       1534.678610000000         0.000011240813
  107        624.475513000000         0.000029057590
  108        265.735250000000         0.000044826459
  109        116.709586000000         0.000056225980
  110         50.306071000000        -0.000137591570
  111         23.036081700000        -0.000276540950
  112         10.586238100000        -0.000294072445
  113          4.798113940000         0.001278052959
  114          2.133543170000         0.000677585902
  115          0.857316380000        -0.004699462709
  116          0.378404470000         0.005247657333
  117          0.152386050000        -0.001768420745
  118          0.060954420000        -0.000524580698
  119   18535881.300000000745         0.000000012040
  120    2419299.990000000224         0.000000038470
  121     474949.065000000002         0.000000115736
  122     117392.346000000005         0.000000292564
  123      34065.440100000000         0.000000857220
  124      11133.885300000000         0.000001844704
  125       3988.280760000000         0.000006557680
  126       1534.678610000000         0.000010975904
  127        624.475513000000         0.000044438185
  128        265.735250000000         0.000029436824
  129        116.709586000000         0.000137621091
  130         50.306071000000        -0.000371396778
  131         23.036081700000         0.000116119609
  132         10.586238100000        -0.001385916806
  133          4.798113940000         0.004321803637
  134          2.133543170000        -0.004629779850
  135          0.857316380000         0.001222914687
  136          0.378404470000         0.002794954256
  137          0.152386050000        -0.004669663879
  138          0.060954420000         0.002822729852
 S 138
    1   18535881.300000000745        -0.000001367874
    2    2419299.990000000224        -0.000004413725
    3     474949.065000000002        -0.000012899803
    4     117392.346000000005        -0.000034447208
    5      34065.440100000000        -0.000089441906
    6      11133.885300000000        -0.000231730700
    7       3988.280760000000        -0.000596051991
    8       1534.678610000000        -0.001435333549
    9        624.475513000000        -0.002864868968
   10        265.735250000000        -0.003809151006
   11        116.709586000000        -0.002264641555
   12         50.306071000000        -0.000269923928
   13         23.036081700000        -0.000005917530
   14         10.586238100000         0.000005499878
   15          4.798113940000        -0.000003790932
   16          2.133543170000         0.000002705874
   17          0.857316380000        -0.000001508984
   18          0.378404470000         0.000000836797
   19   18535881.300000000745         0.000044364353
   20    2419299.990000000224         0.000143304930
   21     474949.065000000002         0.000419643142
   22     117392.346000000005         0.001124670719
   23      34065.440100000000         0.002940729941
   24      11133.885300000000         0.007717883070
   25       3988.280760000000         0.020397131460
   26       1534.678610000000         0.051991983022
   27        624.475513000000         0.117869849117
   28        265.735250000000         0.203978786705
   29        116.709586000000         0.163191766740
   30         50.306071000000        -0.274828369470
   31         23.036081700000        -0.647942142201
   32         10.586238100000        -0.251007710730
   33          4.798113940000        -0.010271149717
   34          2.133543170000        -0.002810565946
   35          0.857316380000         0.000921559095
   36          0.378404470000        -0.000426766545
   37          0.152386050000         0.000198429108
   38          0.060954420000        -0.000051746789
   39   18535881.300000000745         0.000001335913
   40    2419299.990000000224         0.000004315454
   41     474949.065000000002         0.000012641627
   42     117392.346000000005         0.000033895534
   43      34065.440100000000         0.000088714164
   44      11133.885300000000         0.000233209590
   45       3988.280760000000         0.000618557548
   46       1534.678610000000         0.001588750063
   47        624.475513000000         0.003664861028
   48        265.735250000000         0.006589021969
   49        116.709586000000         0.005637337029
   50         50.306071000000        -0.011761233262
   51         23.036081700000        -0.039738925127
   52         10.586238100000        -0.015988277499
   53          4.798113940000         0.051916698762
   54          2.133543170000         0.044187017153
   55          0.857316380000         0.002406071059
   56          0.378404470000         0.000446411777
   57          0.152386050000        -0.000184616032
   58          0.060954420000         0.000061571212
   59   18535881.300000000745         0.000000109547
   60    2419299.990000000224         0.000000353847
   61     474949.065000000002         0.000001036333
   62     117392.346000000005         0.000002778655
   63      34065.440100000000         0.000007274045
   64      11133.885300000000         0.000019126114
   65       3988.280760000000         0.000050759301
   66       1534.678610000000         0.000130527600
   67        624.475513000000         0.000301928586
   68        265.735250000000         0.000546084236
   69        116.709586000000         0.000472680252
   70         50.306071000000        -0.001020235975
   71         23.036081700000        -0.003656710722
   72         10.586238100000        -0.001520299463
   73          4.798113940000         0.006322183663
   74          2.133543170000         0.009857905676
   75          0.857316380000        -0.004038522460
   76          0.378404470000        -0.014798852065
   77          0.152386050000        -0.005593460440
   78          0.060954420000         0.000017339443
   79   18535881.300000000745         0.000000133825
   80    2419299.990000000224         0.000000432560
   81     474949.065000000002         0.000001264375
   82     117392.346000000005         0.000003407596
   83      34065.440100000000         0.000008832055
   84      11133.885300000000         0.000023627907
   85       3988.280760000000         0.000061093695
   86       1534.678610000000         0.000163057140
   87        624.475513000000         0.000358857636
   88        265.735250000000         0.000703196155
   89        116.709586000000         0.000492989979
   90         50.306071000000        -0.001045716023
   91         23.036081700000        -0.005288754193
   92         10.586238100000        -0.000294936053
   93          4.798113940000         0.006008303052
   94          2.133543170000         0.022016404122
   95          0.857316380000        -0.036929940977
   96          0.378404470000        -0.007576291728
   97          0.152386050000         0.027224013660
   98          0.060954420000         0.000627584956
   99   18535881.300000000745         0.000000192819
  100    2419299.990000000224         0.000000621863
  101     474949.065000000002         0.000001831321
  102     117392.346000000005         0.000004854736
  103      34065.440100000000         0.000012996300
  104      11133.885300000000         0.000032904144
  105       3988.280760000000         0.000092521217
  106       1534.678610000000         0.000219932337
  107        624.475513000000         0.000568526830
  108        265.735250000000         0.000877052959
  109        116.709586000000         0.001100090499
  110         50.306071000000        -0.002692050518
  111         23.036081700000        -0.005410667294
  112         10.586238100000        -0.005753680097
  113          4.798113940000         0.025005769866
  114          2.133543170000         0.013257320053
  115          0.857316380000        -0.091947428464
  116          0.378404470000         0.102673140971
  117          0.152386050000        -0.034600070260
  118          0.060954420000        -0.010263693789
  119   18535881.300000000745         0.000000211391
  120    2419299.990000000224         0.000000675436
  121     474949.065000000002         0.000002032045
  122     117392.346000000005         0.000005136712
  123      34065.440100000000         0.000015050683
  124      11133.885300000000         0.000032388492
  125       3988.280760000000         0.000115136798
  126       1534.678610000000         0.000192709996
  127        624.475513000000         0.000780225699
  128        265.735250000000         0.000516838527
  129        116.709586000000         0.002416289302
  130         50.306071000000        -0.006520817819
  131         23.036081700000         0.002038775949
  132         10.586238100000        -0.024333304797
  133          4.798113940000         0.075880287157
  134          2.133543170000        -0.081287595179
  135          0.857316380000         0.021471386814
  136          0.378404470000         0.049072551499
  137          0.152386050000        -0.081987861035
  138          0.060954420000         0.049560222929
 S 137
    1   18535881.300000000745        -0.000000342447
    2    2419299.990000000224        -0.000001104974
    3     474949.065000000002        -0.000003229460
    4     117392.346000000005        -0.000008623842
    5      34065.440100000000        -0.000022391740
    6      11133.885300000000        -0.000058013673
    7       3988.280760000000        -0.000149221339
    8       1534.678610000000        -0.000359335088
    9        624.475513000000        -0.000717218617
   10        265.735250000000        -0.000953619187
   11        116.709586000000        -0.000566951963
   12         50.306071000000        -0.000067575330
   13         23.036081700000        -0.000001481451
   14         10.586238100000         0.000001376892
   15          4.798113940000        -0.000000949058
   16          2.133543170000         0.000000677414
   17          0.857316380000        -0.000000377773
   18   18535881.300000000745        -0.000003735851
   19    2419299.990000000224        -0.000012067479
   20     474949.065000000002        -0.000035337477
   21     117392.346000000005        -0.000094706720
   22      34065.440100000000        -0.000247634158
   23      11133.885300000000        -0.000649910572
   24       3988.280760000000        -0.001717609771
   25       1534.678610000000        -0.004378161616
   26        624.475513000000        -0.009925631204
   27        265.735250000000        -0.017176726920
   28        116.709586000000        -0.013742117296
   29         50.306071000000         0.023142856806
   30         23.036081700000         0.054562169998
   31         10.586238100000         0.021136957286
   32          4.798113940000         0.000864917067
   33          2.133543170000         0.000236673257
   34          0.857316380000        -0.000077603015
   35          0.378404470000         0.000035937327
   36          0.152386050000        -0.000016709397
   37          0.060954420000         0.000004357514
   38   18535881.300000000745         0.000016947300
   39    2419299.990000000224         0.000054745545
   40     474949.065000000002         0.000160370799
   41     117392.346000000005         0.000429996390
   42      34065.440100000000         0.001125421717
   43      11133.885300000000         0.002958480648
   44       3988.280760000000         0.007846978064
   45       1534.678610000000         0.020154772877
   46        624.475513000000         0.046492172284
   47        265.735250000000         0.083587874753
   48        116.709586000000         0.071514865739
   49         50.306071000000        -0.149202187737
   50         23.036081700000        -0.504125242227
   51         10.586238100000        -0.202826177141
   52          4.798113940000         0.658611632190
   53          2.133543170000         0.560553428518
   54          0.857316380000         0.030523250227
   55          0.378404470000         0.005663148773
   56          0.152386050000        -0.002342026148
   57          0.060954420000         0.000781088117
   58   18535881.300000000745         0.000000984829
   59    2419299.990000000224         0.000003181101
   60     474949.065000000002         0.000009316691
   61     117392.346000000005         0.000024980250
   62      34065.440100000000         0.000065394039
   63      11133.885300000000         0.000171944748
   64       3988.280760000000         0.000456328734
   65       1534.678610000000         0.001173449849
   66        624.475513000000         0.002714353538
   67        265.735250000000         0.004909325402
   68        116.709586000000         0.004249419812
   69         50.306071000000        -0.009171973961
   70         23.036081700000        -0.032874017708
   71         10.586238100000        -0.013667570466
   72          4.798113940000         0.056836756716
   73          2.133543170000         0.088623079708
   74          0.857316380000        -0.036306524898
   75          0.378404470000        -0.133042442200
   76          0.152386050000        -0.050285497414
   77          0.060954420000         0.000155882486
   78   18535881.300000000745         0.000001098938
   79    2419299.990000000224         0.000003552072
   80     474949.065000000002         0.000010382725
   81     117392.346000000005         0.000027982307
   82      34065.440100000000         0.000072526586
   83      11133.885300000000         0.000194026352
   84       3988.280760000000         0.000501685866
   85       1534.678610000000         0.001338983716
   86        624.475513000000         0.002946847533
   87        265.735250000000         0.005774467764
   88        116.709586000000         0.004048308173
   89         50.306071000000        -0.008587153711
   90         23.036081700000        -0.043429902745
   91         10.586238100000        -0.002421939767
   92          4.798113940000         0.049338654752
   93          2.133543170000         0.180793104548
   94          0.857316380000        -0.303259271728
   95          0.378404470000        -0.062214578501
   96          0.152386050000         0.223556668044
   97          0.060954420000         0.005153567856
   98   18535881.300000000745         0.000001372269
   99    2419299.990000000224         0.000004425730
  100     474949.065000000002         0.000013033305
  101     117392.346000000005         0.000034550614
  102      34065.440100000000         0.000092493214
  103      11133.885300000000         0.000234175121
  104       3988.280760000000         0.000658463167
  105       1534.678610000000         0.001565233876
  106        624.475513000000         0.004046141952
  107        265.735250000000         0.006241887955
  108        116.709586000000         0.007829221218
  109         50.306071000000        -0.019159022872
  110         23.036081700000        -0.038507114834
  111         10.586238100000        -0.040948298646
  112          4.798113940000         0.177963271350
  113          2.133543170000         0.094350866165
  114          0.857316380000        -0.654379579155
  115          0.378404470000         0.730713277163
  116          0.152386050000        -0.246244835706
  117          0.060954420000        -0.073045562388
  118   18535881.300000000745         0.000001235250
  119    2419299.990000000224         0.000003946870
  120     474949.065000000002         0.000011874135
  121     117392.346000000005         0.000030016070
  122      34065.440100000000         0.000087947769
  123      11133.885300000000         0.000189260225
  124       3988.280760000000         0.000672795014
  125       1534.678610000000         0.001126089377
  126        624.475513000000         0.004559202369
  127        265.735250000000         0.003020115130
  128        116.709586000000         0.014119442525
  129         50.306071000000        -0.038104010286
  130         23.036081700000         0.011913465748
  131         10.586238100000        -0.142190216331
  132          4.798113940000         0.443401935585
  133          2.133543170000        -0.474999217737
  134          0.857316380000         0.125466769164
  135          0.378404470000         0.286752529992
  136          0.152386050000        -0.479091179534
  137          0.060954420000         0.289602208928
 S 135
    1   18535881.300000000745        -0.000000119340
    2    2419299.990000000224        -0.000000385076
    3     474949.065000000002        -0.000001125446
    4     117392.346000000005        -0.000003005354
    5      34065.440100000000        -0.000007803377
    6      11133.885300000000        -0.000020217392
    7       3988.280760000000        -0.000052002676
    8       1534.678610000000        -0.000125225965
    9        624.475513000000        -0.000249946070
   10        265.735250000000        -0.000332330147
   11        116.709586000000        -0.000197579109
   12         50.306071000000        -0.000023549567
   13         23.036081700000        -0.000000516276
   14         10.586238100000         0.000000479838
   15          4.798113940000        -0.000000330741
   16          2.133543170000         0.000000236074
   17   18535881.300000000745        -0.000000672218
   18    2419299.990000000224        -0.000002171386
   19     474949.065000000002        -0.000006358520
   20     117392.346000000005        -0.000017041245
   21      34065.440100000000        -0.000044558552
   22      11133.885300000000        -0.000116942971
   23       3988.280760000000        -0.000309061582
   24       1534.678610000000        -0.000787793351
   25        624.475513000000        -0.001785988493
   26        265.735250000000        -0.003090729043
   27        116.709586000000        -0.002472715625
   28         50.306071000000         0.004164256671
   29         23.036081700000         0.009817754234
   30         10.586238100000         0.003803321090
   31          4.798113940000         0.000155630599
   32          2.133543170000         0.000042586280
   33          0.857316380000        -0.000013963655
   34          0.378404470000         0.000006466456
   35          0.152386050000        -0.000003006639
   36   18535881.300000000745        -0.000005668929
   37    2419299.990000000224        -0.000018312568
   38     474949.065000000002        -0.000053644568
   39     117392.346000000005        -0.000143835229
   40      34065.440100000000        -0.000376457325
   41      11133.885300000000        -0.000989621662
   42       3988.280760000000        -0.002624840382
   43       1534.678610000000        -0.006741838870
   44        624.475513000000        -0.015551786973
   45        265.735250000000        -0.027960423397
   46        116.709586000000        -0.023921961542
   47         50.306071000000         0.049908630327
   48         23.036081700000         0.168631577956
   49         10.586238100000         0.067846033956
   50          4.798113940000        -0.220307791583
   51          2.133543170000        -0.187506994814
   52          0.857316380000        -0.010210129188
   53          0.378404470000        -0.001894342187
   54          0.152386050000         0.000783415572
   55          0.060954420000        -0.000261276585
   56   18535881.300000000745         0.000003236355
   57    2419299.990000000224         0.000010453763
   58     474949.065000000002         0.000030616590
   59     117392.346000000005         0.000082090313
   60      34065.440100000000         0.000214898452
   61      11133.885300000000         0.000565046309
   62       3988.280760000000         0.001499591413
   63       1534.678610000000         0.003856200990
   64        624.475513000000         0.008919931949
   65        265.735250000000         0.016133067375
   66        116.709586000000         0.013964479947
   67         50.306071000000        -0.030141019745
   68         23.036081700000        -0.108030879838
   69         10.586238100000        -0.044914487659
   70          4.798113940000         0.186777438938
   71          2.133543170000         0.291233927038
   72          0.857316380000        -0.119310814497
   73          0.378404470000        -0.437205218239
   74          0.152386050000        -0.165248634252
   75          0.060954420000         0.000512262366
   76   18535881.300000000745         0.000003487959
   77    2419299.990000000224         0.000011274052
   78     474949.065000000002         0.000032954113
   79     117392.346000000005         0.000088814070
   80      34065.440100000000         0.000230194791
   81      11133.885300000000         0.000615827357
   82       3988.280760000000         0.001592319173
   83       1534.678610000000         0.004249849536
   84        624.475513000000         0.009353107486
   85        265.735250000000         0.018327795063
   86        116.709586000000         0.012849073816
   87         50.306071000000        -0.027255082168
   88         23.036081700000        -0.137843761474
   89         10.586238100000        -0.007687083472
   90          4.798113940000         0.156597766222
   91          2.133543170000         0.573825866612
   92          0.857316380000        -0.962525727087
   93          0.378404470000        -0.197465132941
   94          0.152386050000         0.709554709500
   95          0.060954420000         0.016357098069
   96   18535881.300000000745         0.000003929615
   97    2419299.990000000224         0.000012673475
   98     474949.065000000002         0.000037322034
   99     117392.346000000005         0.000098938775
  100      34065.440100000000         0.000264862593
  101      11133.885300000000         0.000670581410
  102       3988.280760000000         0.001885568191
  103       1534.678610000000         0.004482187244
  104        624.475513000000         0.011586489480
  105        265.735250000000         0.017874204610
  106        116.709586000000         0.022419675422
  107         50.306071000000        -0.054863576114
  108         23.036081700000        -0.110268568486
  109         10.586238100000        -0.117259116738
  110          4.798113940000         0.509613749541
  111          2.133543170000         0.270182146655
  112          0.857316380000        -1.873874470992
  113          0.378404470000         2.092462844666
  114          0.152386050000        -0.705144118096
  115          0.060954420000        -0.209172503145
  116   18535881.300000000745         0.000002917549
  117    2419299.990000000224         0.000009322148
  118     474949.065000000002         0.000028045626
  119     117392.346000000005         0.000070895225
  120      34065.440100000000         0.000207724622
  121      11133.885300000000         0.000447015420
  122       3988.280760000000         0.001589080570
  123       1534.678610000000         0.002659720586
  124        624.475513000000         0.010768420914
  125        265.735250000000         0.007133236976
  126        116.709586000000         0.033348837768
  127         50.306071000000        -0.089998203196
  128         23.036081700000         0.028138521460
  129         10.586238100000        -0.335840345564
  130          4.798113940000         1.047275003256
  131          2.133543170000        -1.121904906990
  132          0.857316380000         0.296341085907
  133          0.378404470000         0.677283369061
  134          0.152386050000        -1.131569748211
  135          0.060954420000         0.684014051263
 S 135
    1   18535881.300000000745        -0.000000059970
    2    2419299.990000000224        -0.000000193506
    3     474949.065000000002        -0.000000565552
    4     117392.346000000005        -0.000001510232
    5      34065.440100000000        -0.000003921307
    6      11133.885300000000        -0.000010159524
    7       3988.280760000000        -0.000026132076
    8       1534.678610000000        -0.000062927808
    9        624.475513000000        -0.000125601414
   10        265.735250000000        -0.000167000571
   11        116.709586000000        -0.000099286280
   12         50.306071000000        -0.000011833989
   13         23.036081700000        -0.000000259436
   14         10.586238100000         0.000000241125
   15          4.798113940000        -0.000000166202
   16          2.133543170000         0.000000118631
   17   18535881.300000000745        -0.000000294692
   18    2419299.990000000224        -0.000000951910
   19     474949.065000000002        -0.000002787499
   20     117392.346000000005        -0.000007470677
   21      34065.440100000000        -0.000019533934
   22      11133.885300000000        -0.000051266394
   23       3988.280760000000        -0.000135488886
   24       1534.678610000000        -0.000345359143
   25        624.475513000000        -0.000782955904
   26        265.735250000000        -0.001354938490
   27        116.709586000000        -0.001084008830
   28         50.306071000000         0.001825560108
   29         23.036081700000         0.004303985536
   30         10.586238100000         0.001667330285
   31          4.798113940000         0.000068226585
   32          2.133543170000         0.000018669314
   33          0.857316380000        -0.000006121499
   34          0.378404470000         0.000002834816
   35          0.152386050000        -0.000001318074
   36   18535881.300000000745        -0.000000466328
   37    2419299.990000000224        -0.000001506399
   38     474949.065000000002        -0.000004412822
   39     117392.346000000005        -0.000011831940
   40      34065.440100000000        -0.000030967520
   41      11133.885300000000        -0.000081406647
   42       3988.280760000000        -0.000215920349
   43       1534.678610000000        -0.000554586180
   44        624.475513000000        -0.001279295797
   45        265.735250000000        -0.002300034858
   46        116.709586000000        -0.001967829479
   47         50.306071000000         0.004105502547
   48         23.036081700000         0.013871696503
   49         10.586238100000         0.005581040060
   50          4.798113940000        -0.018122601111
   51          2.133543170000        -0.015424395334
   52          0.857316380000        -0.000839889035
   53          0.378404470000        -0.000155829295
   54          0.152386050000         0.000064444057
   55          0.060954420000        -0.000021492709
   56   18535881.300000000745        -0.000004292680
   57    2419299.990000000224        -0.000013865802
   58     474949.065000000002        -0.000040609644
   59     117392.346000000005        -0.000108884051
   60      34065.440100000000        -0.000285039894
   61      11133.885300000000        -0.000749473708
   62       3988.280760000000        -0.001989048188
   63       1534.678610000000        -0.005114839633
   64        624.475513000000        -0.011831339077
   65        265.735250000000        -0.021398794470
   66        116.709586000000        -0.018522394366
   67         50.306071000000         0.039978850372
   68         23.036081700000         0.143291448570
   69         10.586238100000         0.059574281059
   70          4.798113940000        -0.247740366698
   71          2.133543170000        -0.386290765575
   72          0.857316380000         0.158253079722
   73          0.378404470000         0.579906126269
   74          0.152386050000         0.219184701744
   75          0.060954420000        -0.000679461434
   76   18535881.300000000745         0.000000507002
   77    2419299.990000000224         0.000001638772
   78     474949.065000000002         0.000004790139
   79     117392.346000000005         0.000012909821
   80      34065.440100000000         0.000033460617
   81      11133.885300000000         0.000089515333
   82       3988.280760000000         0.000231456073
   83       1534.678610000000         0.000617748941
   84        624.475513000000         0.001359547484
   85        265.735250000000         0.002664088668
   86        116.709586000000         0.001867713592
   87         50.306071000000        -0.003961739822
   88         23.036081700000        -0.020036671169
   89         10.586238100000        -0.001117377835
   90          4.798113940000         0.022762712756
   91          2.133543170000         0.083410087441
   92          0.857316380000        -0.139910658846
   93          0.378404470000        -0.028703104833
   94          0.152386050000         0.103139338617
   95          0.060954420000         0.002377632414
   96   18535881.300000000745         0.000004304196
   97    2419299.990000000224         0.000013881542
   98     474949.065000000002         0.000040879662
   99     117392.346000000005         0.000108369864
  100      34065.440100000000         0.000290109950
  101      11133.885300000000         0.000734502887
  102       3988.280760000000         0.002065305210
  103       1534.678610000000         0.004909440406
  104        624.475513000000         0.012690942284
  105        265.735250000000         0.019578017956
  106        116.709586000000         0.024556774276
  107         50.306071000000        -0.060093307742
  108         23.036081700000        -0.120779640876
  109         10.586238100000        -0.128436545460
  110          4.798113940000         0.558191391260
  111          2.133543170000         0.295936576418
  112          0.857316380000        -2.052496815383
  113          0.378404470000         2.291921572907
  114          0.152386050000        -0.772360197646
  115          0.060954420000        -0.229111342951
  116   18535881.300000000745         0.000004084559
  117    2419299.990000000224         0.000013050975
  118     474949.065000000002         0.000039263781
  119     117392.346000000005         0.000099253073
  120      34065.440100000000         0.000290813765
  121      11133.885300000000         0.000625820069
  122       3988.280760000000         0.002224707395
  123       1534.678610000000         0.003723599775
  124        624.475513000000         0.015075752660
  125        265.735250000000         0.009986507510
  126        116.709586000000         0.046688259469
  127         50.306071000000        -0.125997178426
  128         23.036081700000         0.039393834355
  129         10.586238100000        -0.470175341727
  130          4.798113940000         1.466181443183
  131          2.133543170000        -1.570663054624
  132          0.857316380000         0.414876512529
  133          0.378404470000         0.948194413508
  134          0.152386050000        -1.584193799467
  135          0.060954420000         0.957617345702
 S 134
    1   18535881.300000000745        -0.000000037260
    2    2419299.990000000224        -0.000000120226
    3     474949.065000000002        -0.000000351379
    4     117392.346000000005        -0.000000938312
    5      34065.440100000000        -0.000002436319
    6      11133.885300000000        -0.000006312140
    7       3988.280760000000        -0.000016235930
    8       1534.678610000000        -0.000039097218
    9        624.475513000000        -0.000078036500
   10        265.735250000000        -0.000103757909
   11        116.709586000000        -0.000061686836
   12         50.306071000000        -0.000007352489
   13         23.036081700000        -0.000000161188
   14         10.586238100000         0.000000149812
   15          4.798113940000        -0.000000103262
   16   18535881.300000000745        -0.000000174092
   17    2419299.990000000224        -0.000000562350
   18     474949.065000000002        -0.000001646743
   19     117392.346000000005        -0.000004413378
   20      34065.440100000000        -0.000011539870
   21      11133.885300000000        -0.000030286142
   22       3988.280760000000        -0.000080041433
   23       1534.678610000000        -0.000204024415
   24        624.475513000000        -0.000462539138
   25        265.735250000000        -0.000800443649
   26        116.709586000000        -0.000640389206
   27         50.306071000000         0.001078468141
   28         23.036081700000         0.002542623087
   29         10.586238100000         0.000984992268
   30          4.798113940000         0.000040305547
   31          2.133543170000         0.000011029086
   32          0.857316380000        -0.000003616337
   33          0.378404470000         0.000001674697
   34          0.152386050000        -0.000000778666
   35   18535881.300000000745        -0.000000310672
   36    2419299.990000000224        -0.000001003577
   37     474949.065000000002        -0.000002939862
   38     117392.346000000005        -0.000007882546
   39      34065.440100000000        -0.000020630845
   40      11133.885300000000        -0.000054233853
   41       3988.280760000000        -0.000143848111
   42       1534.678610000000        -0.000369470386
   43        624.475513000000        -0.000852278561
   44        265.735250000000        -0.001532304259
   45        116.709586000000        -0.001310985997
   46         50.306071000000         0.002735123346
   47         23.036081700000         0.009241451083
   48         10.586238100000         0.003718139933
   49          4.798113940000        -0.012073442612
   50          2.133543170000        -0.010275873245
   51          0.857316380000        -0.000559541757
   52          0.378404470000        -0.000103814901
   53          0.152386050000         0.000042933220
   54          0.060954420000        -0.000014318640
   55   18535881.300000000745         0.000001832689
   56    2419299.990000000224         0.000005919775
   57     474949.065000000002         0.000017337618
   58     117392.346000000005         0.000046486249
   59      34065.440100000000         0.000121693080
   60      11133.885300000000         0.000319975435
   61       3988.280760000000         0.000849191310
   62       1534.678610000000         0.002183696400
   63        624.475513000000         0.005051195033
   64        265.735250000000         0.009135862276
   65        116.709586000000         0.007907830704
   66         50.306071000000        -0.017068310621
   67         23.036081700000        -0.061175920038
   68         10.586238100000        -0.025434256480
   69          4.798113940000         0.105768662502
   70          2.133543170000         0.164920469587
   71          0.857316380000        -0.067563541631
   72          0.378404470000        -0.247581353695
   73          0.152386050000        -0.093577292442
   74          0.060954420000         0.000290084850
   75   18535881.300000000745        -0.000005119369
   76    2419299.990000000224        -0.000016547223
   77     474949.065000000002        -0.000048367617
   78     117392.346000000005        -0.000130354742
   79      34065.440100000000        -0.000337862937
   80      11133.885300000000        -0.000903865976
   81       3988.280760000000        -0.002337088647
   82       1534.678610000000        -0.006237615719
   83        624.475513000000        -0.013727801369
   84        265.735250000000        -0.026900185906
   85        116.709586000000        -0.018858922919
   86         50.306071000000         0.040002999526
   87         23.036081700000         0.202316907019
   88         10.586238100000         0.011282534193
   89          4.798113940000        -0.229842652067
   90          2.133543170000        -0.842219286959
   91          0.857316380000         1.412724275281
   92          0.378404470000         0.289824758941
   93          0.152386050000        -1.041432072454
   94          0.060954420000        -0.024007742199
   95   18535881.300000000745         0.000001091627
   96    2419299.990000000224         0.000003520628
   97     474949.065000000002         0.000010367873
   98     117392.346000000005         0.000027484694
   99      34065.440100000000         0.000073577497
  100      11133.885300000000         0.000186284144
  101       3988.280760000000         0.000523801363
  102       1534.678610000000         0.001245129079
  103        624.475513000000         0.003218668520
  104        265.735250000000         0.004965364168
  105        116.709586000000         0.006228073104
  106         50.306071000000        -0.015240825586
  107         23.036081700000        -0.030632053885
  108         10.586238100000        -0.032573993041
  109          4.798113940000         0.141568137240
  110          2.133543170000         0.075055241841
  111          0.857316380000        -0.520552906036
  112          0.378404470000         0.581275657162
  113          0.152386050000        -0.195885490481
  114          0.060954420000        -0.058107069636
  115   18535881.300000000745         0.000005125081
  116    2419299.990000000224         0.000016375649
  117     474949.065000000002         0.000049266042
  118     117392.346000000005         0.000124537323
  119      34065.440100000000         0.000364897190
  120      11133.885300000000         0.000785244759
  121       3988.280760000000         0.002791441037
  122       1534.678610000000         0.004672169132
  123        624.475513000000         0.018916229045
  124        265.735250000000         0.012530522865
  125        116.709586000000         0.058581871815
  126         50.306071000000        -0.158094361186
  127         23.036081700000         0.049429226550
  128         10.586238100000        -0.589950276857
  129          4.798113940000         1.839684201966
  130          2.133543170000        -1.970782007670
  131          0.857316380000         0.520564333573
  132          0.378404470000         1.189742436745
  133          0.152386050000        -1.987759645495
  134          0.060954420000         1.201565816161
 S 133
    1   18535881.300000000745        -0.000000025295
    2    2419299.990000000224        -0.000000081621
    3     474949.065000000002        -0.000000238550
    4     117392.346000000005        -0.000000637015
    5      34065.440100000000        -0.000001654004
    6      11133.885300000000        -0.000004285280
    7       3988.280760000000        -0.000011022490
    8       1534.678610000000        -0.000026542903
    9        624.475513000000        -0.000052978584
   10        265.735250000000        -0.000070440718
   11        116.709586000000        -0.000041878880
   12         50.306071000000        -0.000004991568
   13         23.036081700000        -0.000000109430
   14         10.586238100000         0.000000101706
   15          4.798113940000        -0.000000070104
   16   18535881.300000000745        -0.000000114316
   17    2419299.990000000224        -0.000000369262
   18     474949.065000000002        -0.000001081317
   19     117392.346000000005        -0.000002898000
   20      34065.440100000000        -0.000007577540
   21      11133.885300000000        -0.000019887091
   22       3988.280760000000        -0.000052558403
   23       1534.678610000000        -0.000133970583
   24        624.475513000000        -0.000303721680
   25        265.735250000000        -0.000525603284
   26        116.709586000000        -0.000420505142
   27         50.306071000000         0.000708165275
   28         23.036081700000         0.001669587919
   29         10.586238100000         0.000646785282
   30          4.798113940000         0.000026466233
   31          2.133543170000         0.000007242139
   32          0.857316380000        -0.000002374632
   33          0.378404470000         0.000001099673
   34   18535881.300000000745        -0.000000189708
   35    2419299.990000000224        -0.000000612821
   36     474949.065000000002        -0.000001795190
   37     117392.346000000005        -0.000004813377
   38      34065.440100000000        -0.000012597963
   39      11133.885300000000        -0.000033117213
   40       3988.280760000000        -0.000087839022
   41       1534.678610000000        -0.000225612398
   42        624.475513000000        -0.000520433078
   43        265.735250000000        -0.000935682133
   44        116.709586000000        -0.000800536948
   45         50.306071000000         0.001670168331
   46         23.036081700000         0.005643174722
   47         10.586238100000         0.002270434924
   48          4.798113940000        -0.007372494379
   49          2.133543170000        -0.006274831477
   50          0.857316380000        -0.000341677067
   51          0.378404470000        -0.000063393251
   52          0.152386050000         0.000026216626
   53          0.060954420000        -0.000008743495
   54   18535881.300000000745        -0.000000408218
   55    2419299.990000000224        -0.000001318587
   56     474949.065000000002        -0.000003861829
   57     117392.346000000005        -0.000010354475
   58      34065.440100000000        -0.000027106251
   59      11133.885300000000        -0.000071272207
   60       3988.280760000000        -0.000189151204
   61       1534.678610000000        -0.000486402532
   62        624.475513000000        -0.001125117051
   63        265.735250000000        -0.002034947048
   64        116.709586000000        -0.001761411924
   65         50.306071000000         0.003801842374
   66         23.036081700000         0.013626492405
   67         10.586238100000         0.005665296125
   68          4.798113940000        -0.023559202303
   69          2.133543170000        -0.036734838231
   70          0.857316380000         0.015049288777
   71          0.378404470000         0.055146950525
   72          0.152386050000         0.020843663061
   73          0.060954420000        -0.000064614296
   74   18535881.300000000745         0.000002024952
   75    2419299.990000000224         0.000006545208
   76     474949.065000000002         0.000019131678
   77     117392.346000000005         0.000051561459
   78      34065.440100000000         0.000133640754
   79      11133.885300000000         0.000357521698
   80       3988.280760000000         0.000924428979
   81       1534.678610000000         0.002467271723
   82        624.475513000000         0.005429994033
   83        265.735250000000         0.010640294467
   84        116.709586000000         0.007459595034
   85         50.306071000000        -0.015823076316
   86         23.036081700000        -0.080025895501
   87         10.586238100000        -0.004462775334
   88          4.798113940000         0.090913628164
   89          2.133543170000         0.333137519945
   90          0.857316380000        -0.558799197217
   91          0.378404470000        -0.114639385380
   92          0.152386050000         0.411935588724
   93          0.060954420000         0.009496196323
   94   18535881.300000000745        -0.000005844106
   95    2419299.990000000224        -0.000018847933
   96     474949.065000000002        -0.000055505155
   97     117392.346000000005        -0.000147141285
   98      34065.440100000000        -0.000393902414
   99      11133.885300000000        -0.000997285548
  100       3988.280760000000        -0.002804208227
  101       1534.678610000000        -0.006665887981
  102        624.475513000000        -0.017231373160
  103        265.735250000000        -0.026582433800
  104        116.709586000000        -0.033342436810
  105         50.306071000000         0.081592854727
  106         23.036081700000         0.163990901188
  107         10.586238100000         0.174387211973
  108          4.798113940000        -0.757895193460
  109          2.133543170000        -0.401813629426
  110          0.857316380000         2.786817380792
  111          0.378404470000        -3.111900991474
  112          0.152386050000         1.048687046382
  113          0.060954420000         0.311080371910
  114   18535881.300000000745         0.000006224432
  115    2419299.990000000224         0.000019888296
  116     474949.065000000002         0.000059833819
  117     117392.346000000005         0.000151251109
  118      34065.440100000000         0.000443169193
  119      11133.885300000000         0.000953683107
  120       3988.280760000000         0.003390217039
  121       1534.678610000000         0.005674369329
  122        624.475513000000         0.022973840816
  123        265.735250000000         0.015218373438
  124        116.709586000000         0.071147933057
  125         50.306071000000        -0.192006275624
  126         23.036081700000         0.060032006364
  127         10.586238100000        -0.716497126231
  128          4.798113940000         2.234304305954
  129          2.133543170000        -2.393523149858
  130          0.857316380000         0.632227602316
  131          0.378404470000         1.444947261359
  132          0.152386050000        -2.414142563373
  133          0.060954420000         1.459306806063
 P 102
    1     178109.355000000010         0.000044803920
    2      27138.037499999999         0.000232858942
    3       6512.317450000000         0.001112642291
[...]
  BAS[ATNO][ 14].a[ 24] =       116.709586000000;     BAS[ATNO][ 14].d[ 24] =        -0.003418020491;
  BAS[ATNO][ 14].a[ 25] =        50.306071000000;     BAS[ATNO][ 14].d[ 25] =        -0.008587727923;
  BAS[ATNO][ 14].a[ 26] =        23.036081700000;     BAS[ATNO][ 14].d[ 26] =        -0.035897955863;
  BAS[ATNO][ 14].a[ 27] =        10.586238100000;     BAS[ATNO][ 14].d[ 27] =        -0.059735826147;
  BAS[ATNO][ 14].a[ 28] =         4.798113940000;     BAS[ATNO][ 14].d[ 28] =        -0.128146675991;
  BAS[ATNO][ 14].a[ 29] =         2.133543170000;     BAS[ATNO][ 14].d[ 29] =        -0.059374196971;
  BAS[ATNO][ 14].a[ 30] =         0.857316380000;     BAS[ATNO][ 14].d[ 30] =         0.763548741221;
  BAS[ATNO][ 14].a[ 31] =         0.342926550000;     BAS[ATNO][ 14].d[ 31] =        -0.471298073240;
  BAS[ATNO][ 14].a[ 32] =         0.137170620000;     BAS[ATNO][ 14].d[ 32] =        -0.255388629520;
  BAS[ATNO][ 14].a[ 33] =       624.475513000000;     BAS[ATNO][ 14].d[ 33] =        -0.000357593656;
  BAS[ATNO][ 14].a[ 34] =       265.735250000000;     BAS[ATNO][ 14].d[ 34] =         0.001009411135;
  BAS[ATNO][ 14].a[ 35] =       116.709586000000;     BAS[ATNO][ 14].d[ 35] =        -0.005544850110;
  BAS[ATNO][ 14].a[ 36] =        50.306071000000;     BAS[ATNO][ 14].d[ 36] =         0.006545560770;
  BAS[ATNO][ 14].a[ 37] =        23.036081700000;     BAS[ATNO][ 14].d[ 37] =        -0.051199172347;
  BAS[ATNO][ 14].a[ 38] =        10.586238100000;     BAS[ATNO][ 14].d[ 38] =         0.027797749051;
  BAS[ATNO][ 14].a[ 39] =         4.798113940000;     BAS[ATNO][ 14].d[ 39] =        -0.286252106673;
  BAS[ATNO][ 14].a[ 40] =         2.133543170000;     BAS[ATNO][ 14].d[ 40] =         0.396169464041;
  BAS[ATNO][ 14].a[ 41] =         0.857316380000;     BAS[ATNO][ 14].d[ 41] =         0.081558874969;
  BAS[ATNO][ 14].a[ 42] =         0.342926550000;     BAS[ATNO][ 14].d[ 42] =        -0.545266865218;
  BAS[ATNO][ 14].a[ 43] =         0.137170620000;     BAS[ATNO][ 14].d[ 43] =         0.510633435572;

  // Basis function  16 L = d
  InitBFNGauss(BAS[ATNO][ 15]);
  BAS[ATNO][ 15].l  = 2;
  BAS[ATNO][ 15].ng = 44;
  BAS[ATNO][ 15].a[  0] =       624.475513000000;     BAS[ATNO][ 15].d[  0] =        -0.000004107774;
  BAS[ATNO][ 15].a[  1] =       265.735250000000;     BAS[ATNO][ 15].d[  1] =        -0.000014323358;
  BAS[ATNO][ 15].a[  2] =       116.709586000000;     BAS[ATNO][ 15].d[  2] =        -0.000085652896;
  BAS[ATNO][ 15].a[  3] =        50.306071000000;     BAS[ATNO][ 15].d[  3] =        -0.000329084298;
  BAS[ATNO][ 15].a[  4] =        23.036081700000;     BAS[ATNO][ 15].d[  4] =        -0.000940605233;
  BAS[ATNO][ 15].a[  5] =        10.586238100000;     BAS[ATNO][ 15].d[  5] =        -0.001908253549;
  BAS[ATNO][ 15].a[  6] =         4.798113940000;     BAS[ATNO][ 15].d[  6] =        -0.002437761743;
  BAS[ATNO][ 15].a[  7] =         2.133543170000;     BAS[ATNO][ 15].d[  7] =        -0.001839971133;
  BAS[ATNO][ 15].a[  8] =         0.857316380000;     BAS[ATNO][ 15].d[  8] =        -0.000527724070;
  BAS[ATNO][ 15].a[  9] =         0.342926550000;     BAS[ATNO][ 15].d[  9] =        -0.000002212680;
  BAS[ATNO][ 15].a[ 10] =         0.137170620000;     BAS[ATNO][ 15].d[ 10] =        -0.000010467417;
  BAS[ATNO][ 15].a[ 11] =       624.475513000000;     BAS[ATNO][ 15].d[ 11] =        -0.000143229316;
  BAS[ATNO][ 15].a[ 12] =       265.735250000000;     BAS[ATNO][ 15].d[ 12] =        -0.000559647151;
  BAS[ATNO][ 15].a[ 13] =       116.709586000000;     BAS[ATNO][ 15].d[ 13] =        -0.003036896643;
  BAS[ATNO][ 15].a[ 14] =        50.306071000000;     BAS[ATNO][ 15].d[ 14] =        -0.012408793987;
  BAS[ATNO][ 15].a[ 15] =        23.036081700000;     BAS[ATNO][ 15].d[ 15] =        -0.033832831431;
  BAS[ATNO][ 15].a[ 16] =        10.586238100000;     BAS[ATNO][ 15].d[ 16] =        -0.075242592799;
  BAS[ATNO][ 15].a[ 17] =         4.798113940000;     BAS[ATNO][ 15].d[ 17] =        -0.088130489334;
  BAS[ATNO][ 15].a[ 18] =         2.133543170000;     BAS[ATNO][ 15].d[ 18] =        -0.082724299791;
  BAS[ATNO][ 15].a[ 19] =         0.857316380000;     BAS[ATNO][ 15].d[ 19] =         0.330773960706;
  BAS[ATNO][ 15].a[ 20] =         0.342926550000;     BAS[ATNO][ 15].d[ 20] =         0.456168332556;
  BAS[ATNO][ 15].a[ 21] =         0.137170620000;     BAS[ATNO][ 15].d[ 21] =         0.071428831908;
  BAS[ATNO][ 15].a[ 22] =       624.475513000000;     BAS[ATNO][ 15].d[ 22] =         0.000090916024;
  BAS[ATNO][ 15].a[ 23] =       265.735250000000;     BAS[ATNO][ 15].d[ 23] =         0.000129320260;
  BAS[ATNO][ 15].a[ 24] =       116.709586000000;     BAS[ATNO][ 15].d[ 24] =         0.001723816731;
  BAS[ATNO][ 15].a[ 25] =        50.306071000000;     BAS[ATNO][ 15].d[ 25] =         0.004331065047;
  BAS[ATNO][ 15].a[ 26] =        23.036081700000;     BAS[ATNO][ 15].d[ 26] =         0.018104483896;
  BAS[ATNO][ 15].a[ 27] =        10.586238100000;     BAS[ATNO][ 15].d[ 27] =         0.030126682050;
  BAS[ATNO][ 15].a[ 28] =         4.798113940000;     BAS[ATNO][ 15].d[ 28] =         0.064628455189;
  BAS[ATNO][ 15].a[ 29] =         2.133543170000;     BAS[ATNO][ 15].d[ 29] =         0.029944300924;
  BAS[ATNO][ 15].a[ 30] =         0.857316380000;     BAS[ATNO][ 15].d[ 30] =        -0.385081979106;
  BAS[ATNO][ 15].a[ 31] =         0.342926550000;     BAS[ATNO][ 15].d[ 31] =         0.237690647623;
  BAS[ATNO][ 15].a[ 32] =         0.137170620000;     BAS[ATNO][ 15].d[ 32] =         0.128800629989;
  BAS[ATNO][ 15].a[ 33] =       624.475513000000;     BAS[ATNO][ 15].d[ 33] =         0.000513617300;
  BAS[ATNO][ 15].a[ 34] =       265.735250000000;     BAS[ATNO][ 15].d[ 34] =        -0.001449832828;
  BAS[ATNO][ 15].a[ 35] =       116.709586000000;     BAS[ATNO][ 15].d[ 35] =         0.007964153989;
  BAS[ATNO][ 15].a[ 36] =        50.306071000000;     BAS[ATNO][ 15].d[ 36] =        -0.009401490190;
  BAS[ATNO][ 15].a[ 37] =        23.036081700000;     BAS[ATNO][ 15].d[ 37] =         0.073538163264;
  BAS[ATNO][ 15].a[ 38] =        10.586238100000;     BAS[ATNO][ 15].d[ 38] =        -0.039926336978;
  BAS[ATNO][ 15].a[ 39] =         4.798113940000;     BAS[ATNO][ 15].d[ 39] =         0.411148328968;
  BAS[ATNO][ 15].a[ 40] =         2.133543170000;     BAS[ATNO][ 15].d[ 40] =        -0.569024329715;
  BAS[ATNO][ 15].a[ 41] =         0.857316380000;     BAS[ATNO][ 15].d[ 41] =        -0.117144273787;
  BAS[ATNO][ 15].a[ 42] =         0.342926550000;     BAS[ATNO][ 15].d[ 42] =         0.783175233475;
  BAS[ATNO][ 15].a[ 43] =         0.137170620000;     BAS[ATNO][ 15].d[ 43] =        -0.733430702715;

  // Basis function  17 L = d
  InitBFNGauss(BAS[ATNO][ 16]);
  BAS[ATNO][ 16].l  = 2;
  BAS[ATNO][ 16].ng = 44;
  BAS[ATNO][ 16].a[  0] =       624.475513000000;     BAS[ATNO][ 16].d[  0] =        -0.000010788685;
  BAS[ATNO][ 16].a[  1] =       265.735250000000;     BAS[ATNO][ 16].d[  1] =        -0.000037618959;
  BAS[ATNO][ 16].a[  2] =       116.709586000000;     BAS[ATNO][ 16].d[  2] =        -0.000224959307;
  BAS[ATNO][ 16].a[  3] =        50.306071000000;     BAS[ATNO][ 16].d[  3] =        -0.000864309074;
  BAS[ATNO][ 16].a[  4] =        23.036081700000;     BAS[ATNO][ 16].d[  4] =        -0.002470411512;
  BAS[ATNO][ 16].a[  5] =        10.586238100000;     BAS[ATNO][ 16].d[  5] =        -0.005011849151;
  BAS[ATNO][ 16].a[  6] =         4.798113940000;     BAS[ATNO][ 16].d[  6] =        -0.006402552810;
  BAS[ATNO][ 16].a[  7] =         2.133543170000;     BAS[ATNO][ 16].d[  7] =        -0.004832511783;
  BAS[ATNO][ 16].a[  8] =         0.857316380000;     BAS[ATNO][ 16].d[  8] =        -0.001386017825;
  BAS[ATNO][ 16].a[  9] =         0.342926550000;     BAS[ATNO][ 16].d[  9] =        -0.000005811398;
  BAS[ATNO][ 16].a[ 10] =         0.137170620000;     BAS[ATNO][ 16].d[ 10] =        -0.000027491691;
  BAS[ATNO][ 16].a[ 11] =       624.475513000000;     BAS[ATNO][ 16].d[ 11] =         0.000047413915;
  BAS[ATNO][ 16].a[ 12] =       265.735250000000;     BAS[ATNO][ 16].d[ 12] =         0.000185262789;
  BAS[ATNO][ 16].a[ 13] =       116.709586000000;     BAS[ATNO][ 16].d[ 13] =         0.001005319050;
  BAS[ATNO][ 16].a[ 14] =        50.306071000000;     BAS[ATNO][ 16].d[ 14] =         0.004107744992;
  BAS[ATNO][ 16].a[ 15] =        23.036081700000;     BAS[ATNO][ 16].d[ 15] =         0.011199851011;
  BAS[ATNO][ 16].a[ 16] =        10.586238100000;     BAS[ATNO][ 16].d[ 16] =         0.024907930946;
  BAS[ATNO][ 16].a[ 17] =         4.798113940000;     BAS[ATNO][ 16].d[ 17] =         0.029174275646;
  BAS[ATNO][ 16].a[ 18] =         2.133543170000;     BAS[ATNO][ 16].d[ 18] =         0.027384637745;
  BAS[ATNO][ 16].a[ 19] =         0.857316380000;     BAS[ATNO][ 16].d[ 19] =        -0.109497754738;
  BAS[ATNO][ 16].a[ 20] =         0.342926550000;     BAS[ATNO][ 16].d[ 20] =        -0.151007679355;
  BAS[ATNO][ 16].a[ 21] =         0.137170620000;     BAS[ATNO][ 16].d[ 21] =        -0.023645442648;
  BAS[ATNO][ 16].a[ 22] =       624.475513000000;     BAS[ATNO][ 16].d[ 22] =        -0.000201740059;
  BAS[ATNO][ 16].a[ 23] =       265.735250000000;     BAS[ATNO][ 16].d[ 23] =        -0.000286957962;
  BAS[ATNO][ 16].a[ 24] =       116.709586000000;     BAS[ATNO][ 16].d[ 24] =        -0.003825100072;
  BAS[ATNO][ 16].a[ 25] =        50.306071000000;     BAS[ATNO][ 16].d[ 25] =        -0.009610509588;
  BAS[ATNO][ 16].a[ 26] =        23.036081700000;     BAS[ATNO][ 16].d[ 26] =        -0.040173332469;
  BAS[ATNO][ 16].a[ 27] =        10.586238100000;     BAS[ATNO][ 16].d[ 27] =        -0.066850246663;
  BAS[ATNO][ 16].a[ 28] =         4.798113940000;     BAS[ATNO][ 16].d[ 28] =        -0.143408695444;
  BAS[ATNO][ 16].a[ 29] =         2.133543170000;     BAS[ATNO][ 16].d[ 29] =        -0.066445548157;
  BAS[ATNO][ 16].a[ 30] =         0.857316380000;     BAS[ATNO][ 16].d[ 30] =         0.854485908743;
  BAS[ATNO][ 16].a[ 31] =         0.342926550000;     BAS[ATNO][ 16].d[ 31] =        -0.527428755573;
  BAS[ATNO][ 16].a[ 32] =         0.137170620000;     BAS[ATNO][ 16].d[ 32] =        -0.285804917743;
  BAS[ATNO][ 16].a[ 33] =       624.475513000000;     BAS[ATNO][ 16].d[ 33] =         0.000590745662;
  BAS[ATNO][ 16].a[ 34] =       265.735250000000;     BAS[ATNO][ 16].d[ 34] =        -0.001667549854;
  BAS[ATNO][ 16].a[ 35] =       116.709586000000;     BAS[ATNO][ 16].d[ 35] =         0.009160106990;
  BAS[ATNO][ 16].a[ 36] =        50.306071000000;     BAS[ATNO][ 16].d[ 36] =        -0.010813283636;
  BAS[ATNO][ 16].a[ 37] =        23.036081700000;     BAS[ATNO][ 16].d[ 37] =         0.084581167603;
  BAS[ATNO][ 16].a[ 38] =        10.586238100000;     BAS[ATNO][ 16].d[ 38] =        -0.045921954667;
  BAS[ATNO][ 16].a[ 39] =         4.798113940000;     BAS[ATNO][ 16].d[ 39] =         0.472889234361;
  BAS[ATNO][ 16].a[ 40] =         2.133543170000;     BAS[ATNO][ 16].d[ 40] =        -0.654472998313;
  BAS[ATNO][ 16].a[ 41] =         0.857316380000;     BAS[ATNO][ 16].d[ 41] =        -0.134735476318;
  BAS[ATNO][ 16].a[ 42] =         0.342926550000;     BAS[ATNO][ 16].d[ 42] =         0.900782297858;
  BAS[ATNO][ 16].a[ 43] =         0.137170620000;     BAS[ATNO][ 16].d[ 43] =        -0.843567780839;

  // Basis function  18 L = f
  InitBFNGauss(BAS[ATNO][ 17]);
  BAS[ATNO][ 17].l  = 3;
  BAS[ATNO][ 17].ng = 12;
  BAS[ATNO][ 17].a[  0] =         1.688892000000;     BAS[ATNO][ 17].d[  0] =        -0.053225822298;
  BAS[ATNO][ 17].a[  1] =         0.675557000000;     BAS[ATNO][ 17].d[  1] =        -0.399299753029;
  BAS[ATNO][ 17].a[  2] =         0.270223000000;     BAS[ATNO][ 17].d[  2] =        -0.131878475752;
  BAS[ATNO][ 17].a[  3] =         0.108089000000;     BAS[ATNO][ 17].d[  3] =        -0.002318117669;
  BAS[ATNO][ 17].a[  4] =         1.688892000000;     BAS[ATNO][ 17].d[  4] =        -0.269812722667;
  BAS[ATNO][ 17].a[  5] =         0.675557000000;     BAS[ATNO][ 17].d[  5] =        -0.313515122441;
  BAS[ATNO][ 17].a[  6] =         0.270223000000;     BAS[ATNO][ 17].d[  6] =         0.658364641973;
  BAS[ATNO][ 17].a[  7] =         0.108089000000;     BAS[ATNO][ 17].d[  7] =        -0.058365270881;
  BAS[ATNO][ 17].a[  8] =         1.688892000000;     BAS[ATNO][ 17].d[  8] =        -0.754557402624;
  BAS[ATNO][ 17].a[  9] =         0.675557000000;     BAS[ATNO][ 17].d[  9] =         0.846406094103;
  BAS[ATNO][ 17].a[ 10] =         0.270223000000;     BAS[ATNO][ 17].d[ 10] =        -0.417262163035;
  BAS[ATNO][ 17].a[ 11] =         0.108089000000;     BAS[ATNO][ 17].d[ 11] =        -0.138037500722;

  // Basis function  19 L = f
  InitBFNGauss(BAS[ATNO][ 18]);
  BAS[ATNO][ 18].l  = 3;
  BAS[ATNO][ 18].ng = 12;
  BAS[ATNO][ 18].a[  0] =         1.688892000000;     BAS[ATNO][ 18].d[  0] =         0.081859707220;
  BAS[ATNO][ 18].a[  1] =         0.675557000000;     BAS[ATNO][ 18].d[  1] =         0.614110960894;
  BAS[ATNO][ 18].a[  2] =         0.270223000000;     BAS[ATNO][ 18].d[  2] =         0.202825112841;
  BAS[ATNO][ 18].a[  3] =         0.108089000000;     BAS[ATNO][ 18].d[  3] =         0.003565194966;
  BAS[ATNO][ 18].a[  4] =         1.688892000000;     BAS[ATNO][ 18].d[  4] =        -0.056573895739;
  BAS[ATNO][ 18].a[  5] =         0.675557000000;     BAS[ATNO][ 18].d[  5] =        -0.065737344311;
  BAS[ATNO][ 18].a[  6] =         0.270223000000;     BAS[ATNO][ 18].d[  6] =         0.138044834376;
  BAS[ATNO][ 18].a[  7] =         0.108089000000;     BAS[ATNO][ 18].d[  7] =        -0.012237935695;
  BAS[ATNO][ 18].a[  8] =         1.688892000000;     BAS[ATNO][ 18].d[  8] =        -0.706174725443;
  BAS[ATNO][ 18].a[  9] =         0.675557000000;     BAS[ATNO][ 18].d[  9] =         0.792134023254;
  BAS[ATNO][ 18].a[ 10] =         0.270223000000;     BAS[ATNO][ 18].d[ 10] =        -0.390507060688;
  BAS[ATNO][ 18].a[ 11] =         0.108089000000;     BAS[ATNO][ 18].d[ 11] =        -0.129186452660;

  // Basis function  20 L = f
  InitBFNGauss(BAS[ATNO][ 19]);
  BAS[ATNO][ 19].l  = 3;
  BAS[ATNO][ 19].ng = 12;
  BAS[ATNO][ 19].a[  0] =         1.688892000000;     BAS[ATNO][ 19].d[  0] =         0.026551138934;
  BAS[ATNO][ 19].a[  1] =         0.675557000000;     BAS[ATNO][ 19].d[  1] =         0.199186461779;
  BAS[ATNO][ 19].a[  2] =         0.270223000000;     BAS[ATNO][ 19].d[  2] =         0.065786183865;
  BAS[ATNO][ 19].a[  3] =         0.108089000000;     BAS[ATNO][ 19].d[  3] =         0.001156368500;
  BAS[ATNO][ 19].a[  4] =         1.688892000000;     BAS[ATNO][ 19].d[  4] =        -0.366458162747;
  BAS[ATNO][ 19].a[  5] =         0.675557000000;     BAS[ATNO][ 19].d[  5] =        -0.425814522856;
  BAS[ATNO][ 19].a[  6] =         0.270223000000;     BAS[ATNO][ 19].d[  6] =         0.894187252291;
  BAS[ATNO][ 19].a[  7] =         0.108089000000;     BAS[ATNO][ 19].d[  7] =        -0.079271391371;
  BAS[ATNO][ 19].a[  8] =         1.688892000000;     BAS[ATNO][ 19].d[  8] =         0.664578578833;
  BAS[ATNO][ 19].a[  9] =         0.675557000000;     BAS[ATNO][ 19].d[  9] =        -0.745474575133;
  BAS[ATNO][ 19].a[ 10] =         0.270223000000;     BAS[ATNO][ 19].d[ 10] =         0.367504837069;
  BAS[ATNO][ 19].a[ 11] =         0.108089000000;     BAS[ATNO][ 19].d[ 11] =         0.121576921433;

  // Basis function  21 L = g
  InitBFNGauss(BAS[ATNO][ 20]);
  BAS[ATNO][ 20].l  = 4;
  BAS[ATNO][ 20].ng = 4;
  BAS[ATNO][ 20].a[  0] =         0.844446000000;     BAS[ATNO][ 20].d[  0] =         0.708333169541;
  BAS[ATNO][ 20].a[  1] =         0.337778000000;     BAS[ATNO][ 20].d[  1] =         0.295333069765;
  BAS[ATNO][ 20].a[  2] =         0.844446000000;     BAS[ATNO][ 20].d[  2] =         0.388901306105;
  BAS[ATNO][ 20].a[  3] =         0.337778000000;     BAS[ATNO][ 20].d[  3] =        -0.486937509954;

  // Basis function  22 L = g
  InitBFNGauss(BAS[ATNO][ 21]);
  BAS[ATNO][ 21].l  = 4;
  BAS[ATNO][ 21].ng = 4;
  BAS[ATNO][ 21].a[  0] =         0.844446000000;     BAS[ATNO][ 21].d[  0] =         0.322383770745;
  BAS[ATNO][ 21].a[  1] =         0.337778000000;     BAS[ATNO][ 21].d[  1] =         0.134414979773;
  BAS[ATNO][ 21].a[  2] =         0.844446000000;     BAS[ATNO][ 21].d[  2] =        -0.854483742906;
  BAS[ATNO][ 21].a[  3] =         0.337778000000;     BAS[ATNO][ 21].d[  3] =         1.069886317004;

-------
TIMINGS
-------

Total SCF time: 0 days 0 hours 1 min 4 sec 

Total time                  ....      64.517 sec
Sum of individual times     ....      64.141 sec  ( 99.4%)

Fock matrix formation       ....      63.391 sec  ( 98.3%)
  XC integration            ....       0.056 sec  (  0.1% of F)
    Basis function eval.    ....       0.024 sec  ( 42.1% of XC)
    Density eval.           ....       0.003 sec  (  5.2% of XC)
    XC-Functional eval.     ....       0.002 sec  (  3.2% of XC)
    XC-Potential eval.      ....       0.006 sec  ( 11.5% of XC)
Diagonalization             ....       0.002 sec  (  0.0%)
Density matrix formation    ....       0.001 sec  (  0.0%)
Population analysis         ....       0.001 sec  (  0.0%)
Initial guess               ....       0.087 sec  (  0.1%)
Orbital Transformation      ....       0.000 sec  (  0.0%)
Orbital Orthonormalization  ....       0.000 sec  (  0.0%)
DIIS solution               ....       0.000 sec  (  0.0%)
SOSCF solution              ....       0.001 sec  (  0.0%)
Grid generation             ....       0.658 sec  (  1.0%)

-------------------------   --------------------
FINAL SINGLE POINT ENERGY     -1311.714979158634
-------------------------   --------------------


                            ***************************************
                            *     ORCA property calculations      *
                            ***************************************

                                    ---------------------
                                    Active property flags
                                    ---------------------
   (+) Dipole Moment


------------------------------------------------------------------------------
                       ORCA ELECTRIC PROPERTIES CALCULATION
------------------------------------------------------------------------------

Dipole Moment Calculation                       ... on
Quadrupole Moment Calculation                   ... off
Polarizability Calculation                      ... off
GBWName                                         ... Kr_ano-rcc-qzp_137.035989_.gbw
Electron density file                           ... Kr_ano-rcc-qzp_137.035989_.scfp
The origin for moment calculation is the CENTER OF MASS  = ( 0.000000,  0.000000  0.000000)

-------------
DIPOLE MOMENT
-------------
                                X             Y             Z
Electronic contribution:      0.00000      -0.00000      -0.00000
Nuclear contribution   :      0.00000       0.00000       0.00000
                        -----------------------------------------
Total Dipole Moment    :      0.00000      -0.00000      -0.00000
                        -----------------------------------------
Magnitude (a.u.)       :      0.00000
Magnitude (Debye)      :      0.00000



--------------------
Rotational spectrum 
--------------------
 
Rotational constants in cm-1:     0.000000     0.000000     0.000000 
Rotational constants in MHz :     0.000000     0.000000     0.000000 

 Dipole components along the rotational axes: 
x,y,z [a.u.] :     0.000000    -0.000000    -0.000000 
x,y,z [Debye]:     0.000000    -0.000000    -0.000000 

 

Timings for individual modules:

Sum of individual times         ...       66.186 sec (=   1.103 min)
GTO integral calculation        ...        0.861 sec (=   0.014 min)   1.3 %
Relativistic integrals          ...        0.509 sec (=   0.008 min)   0.8 %
SCF iterations                  ...       64.816 sec (=   1.080 min)  97.9 %
                             ****ORCA TERMINATED NORMALLY****
TOTAL RUN TIME: 0 days 0 hours 1 minutes 6 seconds 590 msec
