
                                 *****************
                                 * O   R   C   A *
                                 *****************

           --- An Ab Initio, DFT and Semiempirical electronic structure package ---

                  #######################################################
                  #                        -***-                        #
                  #          Department of theory and spectroscopy      #
                  #               Directorship: Frank Neese             #
                  #        Max Planck Institute fuer Kohlenforschung    #
                  #                Kaiser Wilhelm Platz 1               #
                  #                 D-45470 Muelheim/Ruhr               #
                  #                      Germany                        #
                  #                                                     #
                  #                  All rights reserved                #
                  #                        -***-                        #
                  #######################################################


                         Program Version 4.2.1 -  RELEASE  -


 With contributions from (in alphabetic order):
   Daniel Aravena         : Magnetic Suceptibility
   Michael Atanasov       : Ab Initio Ligand Field Theory (pilot matlab implementation)
   Alexander A. Auer      : GIAO ZORA, VPT2
   Ute Becker             : Parallelization
   Giovanni Bistoni       : ED, misc. LED, open-shell LED, HFLD
   Martin Brehm           : Molecular dynamics
   Dmytro Bykov           : SCF Hessian
   Vijay G. Chilkuri      : MRCI spin determinant printing, contributions to CSF-ICE
   Dipayan Datta          : RHF DLPNO-CCSD density
   Achintya Kumar Dutta   : EOM-CC, STEOM-CC
   Dmitry Ganyushin       : Spin-Orbit,Spin-Spin,Magnetic field MRCI
   Miquel Garcia          : C-PCM Hessian, Gaussian charge scheme
   Yang Guo               : DLPNO-NEVPT2, CIM, IAO-localization
   Andreas Hansen         : Spin unrestricted coupled pair/coupled cluster methods
   Benjamin Helmich-Paris : CASSCF linear response (MC-RPA)
   Lee Huntington         : MR-EOM, pCC
   Robert Izsak           : Overlap fitted RIJCOSX, COSX-SCS-MP3, EOM
   Christian Kollmar      : KDIIS, OOCD, Brueckner-CCSD(T), CCSD density
   Simone Kossmann        : Meta GGA functionals, TD-DFT gradient, OOMP2, MP2 Hessian
   Martin Krupicka        : AUTO-CI
   Lucas Lang             : DCDCAS
   Dagmar Lenk            : GEPOL surface, SMD
   Dimitrios Liakos       : Extrapolation schemes; Compound Job, initial MDCI parallelization
   Dimitrios Manganas     : Further ROCIS development; embedding schemes
   Dimitrios Pantazis     : SARC Basis sets
   Taras Petrenko         : DFT Hessian,TD-DFT gradient, ASA, ECA, R-Raman, ABS, FL, XAS/XES, NRVS
   Peter Pinski           : DLPNO-MP2, DLPNO-MP2 Gradient
   Christoph Reimann      : Effective Core Potentials
   Marius Retegan         : Local ZFS, SOC
   Christoph Riplinger    : Optimizer, TS searches, QM/MM, DLPNO-CCSD(T), (RO)-DLPNO pert. Triples
   Tobias Risthaus        : Range-separated hybrids, TD-DFT gradient, RPA, STAB
   Michael Roemelt        : Original ROCIS implementation
   Masaaki Saitow         : Open-shell DLPNO-CCSD energy and density
   Barbara Sandhoefer     : DKH picture change effects
   Avijit Sen             : IP-ROCIS
   Kantharuban Sivalingam : CASSCF convergence, NEVPT2, FIC-MRCI
   Bernardo de Souza      : ESD, SOC TD-DFT
   Georgi Stoychev        : AutoAux, RI-MP2 NMR
   Willem Van den Heuvel  : Paramagnetic NMR
   Boris Wezisla          : Elementary symmetry handling
   Frank Wennmohs         : Technical directorship


 We gratefully acknowledge several colleagues who have allowed us to
 interface, adapt or use parts of their codes:
   Stefan Grimme, W. Hujo, H. Kruse,             : VdW corrections, initial TS optimization,
                  C. Bannwarth                     DFT functionals, gCP, sTDA/sTD-DF
   Ed Valeev, F. Pavosevic, A. Kumar             : LibInt (2-el integral package), F12 methods
   Garnet Chan, S. Sharma, J. Yang, R. Olivares  : DMRG
   Ulf Ekstrom                                   : XCFun DFT Library
   Mihaly Kallay                                 : mrcc  (arbitrary order and MRCC methods)
   Andreas Klamt, Michael Diedenhofen            : otool_cosmo (COSMO solvation model)
   Jiri Pittner, Ondrej Demel                    : Mk-CCSD
   Frank Weinhold                                : gennbo (NPA and NBO analysis)
   Christopher J. Cramer and Donald G. Truhlar   : smd solvation model
   Lars Goerigk                                  : TD-DFT with DH, B97 family of functionals
   V. Asgeirsson, H. Jonsson                     : NEB implementation
   FAccTs GmbH                                   : IRC, NEB, NEB-TS, Multilevel, MM, QM/MM, CI optimization
   S Lehtola, MJT Oliveira, MAL Marques          : LibXC Library


 Your calculation uses the libint2 library for the computation of 2-el integrals
 For citations please refer to: http://libint.valeyev.net

 Your ORCA version has been built with support for libXC version: 4.2.3
 For citations please refer to: https://tddft.org/programs/libxc/

 This ORCA versions uses:
   CBLAS   interface :  Fast vector & matrix operations
   LAPACKE interface :  Fast linear algebra routines
   SCALAPACK package :  Parallel linear algebra routines


----- Orbital basis set information -----
Your calculation utilizes the basis: ANO-RCC-DZP
   H, He:       P.-O. Widmark, P.-A. Malmqvist, and B. O. Roos, Theor. Chim. Acta 77, 291 (1990).
   s block:     B. O. Roos, V. Veryazov and P.-O. Widmark, Theor. Chem. Acc. 111, 345 (2004).
   p block:     B. O. Roos, R. Lindh, P.-A. Malmqvist, V. Veryazov, and P.-O. Widmark, J. Phys. Chem. A 108, 2851 (2004).
   d block:     B. O. Roos, R. Lindh, P.-A. Malmqvist, V. Veryazov, and P.-O. Widmark, J. Phys. Chem. A 109, 6575 (2005).
   actinides:   B. O. Roos, R. Lindh, P.-A. Malmqvist, V. Veryazov, and P.-O. Widmark, Chem. Phys. Letters 409, 295 (2005).
   lanthanides: B. O. Roos, R. Lindh, P.-A. Malmqvist, V. Veryazov, P.-O. Widmark and A. C. Borin, J. Phys. Chem. A 112, 11431 (2008).

================================================================================
                                        WARNINGS
                       Please study these warnings very carefully!
================================================================================


INFO   : the flag for use of LIBINT has been found!

================================================================================
                                       INPUT FILE
================================================================================
NAME = Kr_ano-rcc-dzp_1096.287912_.inp
|  1> ! LDA ano-rcc-dzp nori grid5 finalgrid6 verytightscf
|  2> %Pal NProcs 18 End
|  3> 
|  4> % REL
|  5>   Method ZORA
|  6>   ModelPot 1, 0, 0, 0
|  7>   velit 1096.287912
|  8> END
|  9> 
| 10> *xyz 34 1
| 11> Kr 0.0 0.0 0.0
| 12> **                         ****END OF INPUT****
================================================================================

                       ****************************
                       * Single Point Calculation *
                       ****************************

---------------------------------
CARTESIAN COORDINATES (ANGSTROEM)
---------------------------------
  Kr     0.000000    0.000000    0.000000

----------------------------
CARTESIAN COORDINATES (A.U.)
----------------------------
  NO LB      ZA    FRAG     MASS         X           Y           Z
   0 Kr   36.0000    0    83.800    0.000000    0.000000    0.000000

--------------------------------
INTERNAL COORDINATES (ANGSTROEM)
--------------------------------
 Kr     0   0   0     0.000000000000     0.00000000     0.00000000

---------------------------
INTERNAL COORDINATES (A.U.)
---------------------------
 Kr     0   0   0     0.000000000000     0.00000000     0.00000000

---------------------
BASIS SET INFORMATION
---------------------
There are 1 groups of distinct atoms

 Group   1 Type Kr  : 100s68p22d4f contracted to 5s4p2d1f pattern {2020202020/17171717/1111/4}

Atom   0Kr   basis set group =>   1


           ************************************************************
           *        Program running with 18 parallel MPI-processes    *
           *              working on a common directory               *
           ************************************************************


------------------------------------------------------------------------------
                       ORCA GTO INTEGRAL CALCULATION
                     -- ANO INTEGRAL GENERATION BRANCH --
------------------------------------------------------------------------------


Gathering ANO information                         ... done
Calculation Information:
Number of atoms                                   ... 1
Number of basis functions                         ... 34
Highest angular momentum                          ... 3
Number of primitive shells                        ... 52
Total number of shells                            ... 12
Maximum number of shells                          ... 12

Getting memory                                    ... done
Making prescreening integrals                     ... done
Gathering atom contracted prescreening            ... done
Making one-electron integrals                     ... done

Timings:

Total time                                        ...    0.5 sec
Prescreening matrix                               ...    0.4 sec
One-electron matrix                               ...    0.0 sec
Two-index integrals + Cholesky                    ...    0.0 sec


           ************************************************************
           *        Program running with 18 parallel MPI-processes    *
           *              working on a common directory               *
           ************************************************************
------------------------------------------------------------------------------
                          ORCA RELATIVISTIC HAMILTONIAN
------------------------------------------------------------------------------

Relativistic Method            ... ZORA(MP)
Treatment of potential         ... Van Wuellen
Nucleus model                  ... Point Nucleus
Speed of light used            ... 1096.28791200000001


            *************************************************
            *         ZERO ORDER REGULAR APPROXIMATION      *
            *                     ZORA(MP)                  *
            *            Programmed by FN according to      *
            *                   C. van Wuellen              *
            *       J. Chem. Phys. (1998) vol 109, 392-399  *
            *************************************************

Terms included in model potential: +V(e,N)
Basis function cutoff value   ... 1.000000e-12
Loading the fitted atomic densities  (DKH4)  ... done
Calculating the cutoffs                      ... done
Number of fit functions                      ... 27
Setting up the integration grid ... done


           ************************************************************
           *        Program running with 18 parallel MPI-processes    *
           *              working on a common directory               *
           ************************************************************
-------------------------------------------------------------------------------
                                 ORCA SCF
-------------------------------------------------------------------------------

------------
SCF SETTINGS
------------
Hamiltonian:
 Density Functional     Method          .... DFT(GTOs)
 Exchange Functional    Exchange        .... Slater
   X-Alpha parameter    XAlpha          ....  0.666667
 Correlation Functional Correlation     .... VWN-5
 Gradients option       PostSCFGGA      .... off
   Density functional embedding theory  .... OFF

Relativistic Settings:
 Scalar relativistic method             .... ZORA
 Speed of light used       Velit        ....       1096.28791
Orbital energies will be scaled


General Settings:
 Integral files         IntName         .... Kr_ano-rcc-dzp_1096.287912_
 Hartree-Fock type      HFTyp           .... RHF
 Total Charge           Charge          ....   34
 Multiplicity           Mult            ....    1
 Number of Electrons    NEL             ....    2
 Basis Dimension        Dim             ....   34
 Nuclear Repulsion      ENuc            ....      0.0000000000 Eh

Convergence Acceleration:
 DIIS                   CNVDIIS         .... on
   Start iteration      DIISMaxIt       ....    12
   Startup error        DIISStart       ....  0.200000
   # of expansion vecs  DIISMaxEq       ....     5
   Bias factor          DIISBfac        ....   1.050
   Max. coefficient     DIISMaxC        ....  10.000
 Newton-Raphson         CNVNR           .... off
 SOSCF                  CNVSOSCF        .... on
   Start iteration      SOSCFMaxIt      ....   150
   Startup grad/error   SOSCFStart      ....  0.003300
 Level Shifting         CNVShift        .... on
   Level shift para.    LevelShift      ....    0.2500
   Turn off err/grad.   ShiftErr        ....    0.0010
 Zerner damping         CNVZerner       .... off
 Static damping         CNVDamp         .... on
   Fraction old density DampFac         ....    0.7000
   Max. Damping (<1)    DampMax         ....    0.9800
   Min. Damping (>=0)   DampMin         ....    0.0000
   Turn off err/grad.   DampErr         ....    0.1000
 Fernandez-Rico         CNVRico         .... off

SCF Procedure:
 Maximum # iterations   MaxIter         ....   125
 SCF integral mode      SCFMode         .... Direct
   Integral package                     .... LIBINT
 Reset frequency        DirectResetFreq ....    20
 Integral Threshold     Thresh          ....  1.000e-12 Eh
 Primitive CutOff       TCut            ....  1.000e-14 Eh

Convergence Tolerance:
 Convergence Check Mode ConvCheckMode   .... Total+1el-Energy
 Convergence forced     ConvForced      .... 0
 Energy Change          TolE            ....  1.000e-09 Eh
 1-El. energy change                    ....  1.000e-06 Eh
 Orbital Gradient       TolG            ....  2.000e-06
 Orbital Rotation angle TolX            ....  2.000e-06
 DIIS Error             TolErr          ....  1.000e-08


Diagonalization of the overlap matrix:
Smallest eigenvalue                        ... 1.000e+00
Time for diagonalization                   ...    0.001 sec
Threshold for overlap eigenvalues          ... 1.000e-08
Number of eigenvalues below threshold      ... 0
Time for construction of square roots      ...    0.001 sec
Total time needed                          ...    0.002 sec

-------------------
DFT GRID GENERATION
-------------------

General Integration Accuracy     IntAcc      ...  5.010
Radial Grid Type                 RadialGrid  ... Gauss-Chebyshev
Angular Grid (max. acc.)         AngularGrid ... Lebedev-434
Angular grid pruning method      GridPruning ... 3 (G Style)
Weight generation scheme         WeightScheme... Becke
Basis function cutoff            BFCut       ...    1.0000e-12
Integration weight cutoff        WCut        ...    1.0000e-14
Grids for H and He will be reduced by one unit

# of grid points (after initial pruning)     ...  16106 (   0.0 sec)
# of grid points (after weights+screening)   ...  16106 (   0.0 sec)
Grid point division into batches done        ...    0.2 sec
Reduced shell lists constructed in    0.2 sec

Total number of grid points                  ...    16106
Total number of batches                      ...      252
Average number of points per batch           ...       63
Average number of grid points per atom       ...    16106
Average number of shells per batch           ...     5.87 (48.89%)
Average number of basis functions per batch  ...    16.80 (49.41%)
Average number of large shells per batch     ...     2.00 (34.09%)
Average number of large basis fcns per batch ...     4.93 (29.37%)
Maximum spatial batch extension              ...  17.34, 17.34, 17.34 au
Average spatial batch extension              ...   0.86,  0.87,  0.87 au

Time for grid setup =    0.271 sec

------------------------------
INITIAL GUESS: MODEL POTENTIAL
------------------------------
Loading ZORA relativistic densities                ... done
Calculating cut-offs                               ... done
Setting up the integral package                    ... done
Initializing the effective Hamiltonian             ... done
Starting the Coulomb interaction                   ... done (   0.0 sec)
Reading the grid                                   ... done
Mapping shells                                     ... done
Starting the XC term evaluation                    ... done (   0.0 sec)
  promolecular density results
     # of electrons  =     36.000000565
     EX              =    -91.042004939
     EC              =     -3.295965580
     EX+EC           =    -94.337970520
Transforming the Hamiltonian                       ... done (   0.0 sec)
Diagonalizing the Hamiltonian                      ... done (   0.0 sec)
Back transforming the eigenvectors                 ... done (   0.0 sec)
Now organizing SCF variables                       ... done
                      ------------------
                      INITIAL GUESS DONE (   0.4 sec)
                      ------------------
--------------
SCF ITERATIONS
--------------
ITER       Energy         Delta-E        Max-DP      RMS-DP      [F,P]     Damp
               ***  Starting incremental Fock matrix formation  ***
  0  -1250.3450223517   0.000000000000 0.00455971  0.00014100  6.9518149 0.7000
  1  -1250.3633583506  -0.018335998926 0.00318714  0.00009856  4.8563195 0.7000
  2  -1250.3761588802  -0.012800529594 0.00222601  0.00006883  3.3917410 0.7000
                      *** Initiating the SOSCF procedure ***
                      *** Re-Reading the Fockian *** 
                      *** Removing any level shift *** 
ITER      Energy       Delta-E        Grad      Rot      Max-DP    RMS-DP
  3  -1250.38510239  -0.0089435115  0.002706  0.002706  0.005182  0.000160
               *** Restarting incremental Fock matrix formation ***
  4  -1250.40591707  -0.0208146825  0.006269  0.000014  0.000027  0.000001
  5  -1250.40591726  -0.0000001908  0.000032  0.000000  0.000000  0.000000
                 **** Energy Check signals convergence ****
              ***Rediagonalizing the Fockian in SOSCF/NRSCF***

               *****************************************************
               *                     SUCCESS                       *
               *           SCF CONVERGED AFTER   6 CYCLES          *
               *****************************************************

Setting up the final grid:

General Integration Accuracy     IntAcc      ...  5.340
Radial Grid Type                 RadialGrid  ... Gauss-Chebyshev
Angular Grid (max. acc.)         AngularGrid ... Lebedev-590
Angular grid pruning method      GridPruning ... 3 (G Style)
Weight generation scheme         WeightScheme... Becke
Basis function cutoff            BFCut       ...    1.0000e-12
Integration weight cutoff        WCut        ...    1.0000e-14
Grids for H and He will be reduced by one unit

# of grid points (after initial pruning)     ...  24180 (   0.0 sec)
# of grid points (after weights+screening)   ...  24180 (   0.0 sec)
Grid point division into batches done        ...    0.4 sec
Reduced shell lists constructed in    0.4 sec

Total number of grid points                  ...    24180
Total number of batches                      ...      378
Average number of points per batch           ...       63
Average number of grid points per atom       ...    24180
Average number of shells per batch           ...     3.95 (32.95%)
Average number of basis functions per batch  ...    10.23 (30.08%)
Average number of large shells per batch     ...     1.36 (34.48%)
Average number of large basis fcns per batch ...     4.36 (42.67%)
Maximum spatial batch extension              ...  17.58, 17.58, 17.58 au
Average spatial batch extension              ...   0.77,  0.77,  0.77 au

Final grid set up in    0.4 sec
Final integration                            ... done (   0.0 sec)
Change in XC energy                          ...    -0.000014976
Integrated number of electrons               ...     2.000000075
Previous integrated no of electrons          ...     1.999999430

----------------
TOTAL SCF ENERGY
----------------

Total Energy       :        -1250.40593224 Eh          -34025.27523 eV

Components:
Nuclear Repulsion  :            0.00000000 Eh               0.00000 eV
Electronic Energy  :        -1250.40593224 Eh          -34025.27523 eV
One Electron Energy:        -1276.07393192 Eh          -34723.73701 eV
Two Electron Energy:           25.66799968 Eh             698.46178 eV

Virial components:
Potential Energy   :        -2674.44467574 Eh          -72775.33945 eV
Kinetic Energy     :         1424.03874350 Eh           38750.06423 eV
Virial Ratio       :            1.87807016


DFT components:
N(Alpha)           :        1.000000037452 electrons
N(Beta)            :        1.000000037452 electrons
N(Total)           :        2.000000074905 electrons
E(X)               :      -19.613789952350 Eh       
E(C)               :       -0.278906942448 Eh       
E(XC)              :      -19.892696894798 Eh       
DFET-embed. en.    :        0.000000000000 Eh       

---------------
SCF CONVERGENCE
---------------

  Last Energy change         ...   -4.0927e-12  Tolerance :   1.0000e-09
  Last MAX-Density change    ...    0.0000e+00  Tolerance :   1.0000e-08
  Last RMS-Density change    ...    0.0000e+00  Tolerance :   1.0000e-09
  Last Orbital Gradient      ...    1.4307e-11  Tolerance :   2.0000e-06
  Last Orbital Rotation      ...    0.0000e+00  Tolerance :   2.0000e-06

================================================================================
                                        WARNING
Number of found core electrons (2) does not match given number of chemical core electrons (18)
================================================================================
             **** THE GBW FILE WAS UPDATED (Kr_ano-rcc-dzp_1096.287912_.gbw) ****
             **** DENSITY FILE WAS UPDATED (Kr_ano-rcc-dzp_1096.287912_.scfp) ****
             **** ENERGY FILE WAS UPDATED (Kr_ano-rcc-dzp_1096.287912_.en.tmp) ****
             **** THE GBW FILE WAS UPDATED (Kr_ano-rcc-dzp_1096.287912_.gbw) ****
             **** DENSITY FILE WAS UPDATED (Kr_ano-rcc-dzp_1096.287912_.scfp) ****
----------------
ORBITAL ENERGIES
----------------

  NO   OCC          E(Eh)            E(eV) 
   0   2.0000    -605.701411    -16481.9733 
   1   0.0000    -147.443586     -4012.1439 
   2   0.0000    -146.590259     -3988.9238 
   3   0.0000    -146.590259     -3988.9238 
   4   0.0000    -146.590259     -3988.9238 
   5   0.0000     -61.271646     -1667.2863 
   6   0.0000     -58.737098     -1598.3177 
   7   0.0000     -58.737098     -1598.3177 
   8   0.0000     -58.737098     -1598.3177 
   9   0.0000     -54.606132     -1485.9084 
  10   0.0000     -54.606132     -1485.9084 
  11   0.0000     -54.606132     -1485.9084 
  12   0.0000     -54.606132     -1485.9084 
  13   0.0000     -54.606132     -1485.9084 
  14   0.0000     -27.271571      -742.0972 
  15   0.0000     -23.833731      -648.5488 
  16   0.0000     -23.833731      -648.5488 
  17   0.0000     -23.833731      -648.5488 
  18   0.0000     -18.184467      -494.8245 
  19   0.0000     -18.184467      -494.8245 
  20   0.0000     -18.184467      -494.8245 
  21   0.0000     -18.184467      -494.8245 
  22   0.0000     -18.184467      -494.8245 
  23   0.0000     -17.130717      -466.1505 
  24   0.0000     -17.130717      -466.1505 
  25   0.0000     -17.130717      -466.1505 
  26   0.0000     -17.130717      -466.1505 
  27   0.0000     -17.130717      -466.1505 
  28   0.0000     -17.130717      -466.1505 
  29   0.0000     -17.130717      -466.1505 
  30   0.0000     -13.696819      -372.7094 
  31   0.0000     -11.236733      -305.7670 
  32   0.0000     -11.236733      -305.7670 
  33   0.0000     -11.236733      -305.7670 

                    ********************************
                    * MULLIKEN POPULATION ANALYSIS *
                    ********************************

-----------------------
MULLIKEN ATOMIC CHARGES
-----------------------
   0 Kr:   34.000000
Sum of atomic charges:   34.0000000

--------------------------------
MULLIKEN REDUCED ORBITAL CHARGES
--------------------------------
  0 Krs       :     2.000000  s :     2.000000
      pz      :     0.000000  p :     0.000000
      px      :     0.000000
      py      :     0.000000
      dz2     :     0.000000  d :     0.000000
      dxz     :     0.000000
      dyz     :     0.000000
      dx2y2   :     0.000000
      dxy     :     0.000000
      f0      :     0.000000  f :     0.000000
      f+1     :     0.000000
      f-1     :     0.000000
      f+2     :     0.000000
      f-2     :     0.000000
      f+3     :     0.000000
      f-3     :     0.000000


                     *******************************
                     * LOEWDIN POPULATION ANALYSIS *
                     *******************************

----------------------
LOEWDIN ATOMIC CHARGES
----------------------
   0 Kr:   34.000000

-------------------------------
LOEWDIN REDUCED ORBITAL CHARGES
-------------------------------
  0 Krs       :     2.000000  s :     2.000000
      pz      :     0.000000  p :     0.000000
      px      :     0.000000
      py      :     0.000000
      dz2     :     0.000000  d :     0.000000
      dxz     :     0.000000
      dyz     :     0.000000
      dx2y2   :     0.000000
      dxy     :     0.000000
      f0      :     0.000000  f :     0.000000
      f+1     :     0.000000
      f-1     :     0.000000
      f+2     :     0.000000
      f-2     :     0.000000
      f+3     :     0.000000
      f-3     :     0.000000


                      *****************************
                      * MAYER POPULATION ANALYSIS *
                      *****************************

  NA   - Mulliken gross atomic population
  ZA   - Total nuclear charge
  QA   - Mulliken gross atomic charge
  VA   - Mayer's total valence
  BVA  - Mayer's bonded valence
  FA   - Mayer's free valence

  ATOM       NA         ZA         QA         VA         BVA        FA
  0 Kr     2.0000    36.0000    34.0000    -0.0000     0.0000    -0.0000

  Mayer bond orders larger than 0.100000


--------------------------
ATOM BASIS FOR ELEMENT Kr
--------------------------
 NewGTO Kr
 S 99
    1   18535881.300000000745         0.000137343011
    2    2419299.990000000224         0.000443165183
    3     474949.065000000002         0.001295219788
    4     117392.346000000005         0.003458712174
    5      34065.440100000000         0.008980519154
    6      11133.885300000000         0.023267191962
    7       3988.280760000000         0.059847297182
    8       1534.678610000000         0.144116343513
    9        624.475513000000         0.287650519037
   10        265.735250000000         0.382462261288
   11        116.709586000000         0.227383983713
   12         50.306071000000         0.027102027612
   13         23.036081700000         0.000594156506
   14         10.586238100000        -0.000552221693
   15          4.798113940000         0.000380632918
   16          2.133543170000        -0.000271686394
   17          0.857316380000         0.000151511259
   18          0.378404470000        -0.000084019607
   19          0.152386050000         0.000035795572
   20          0.060954420000        -0.000009808787
   21   18535881.300000000745        -0.000000641762
   22    2419299.990000000224        -0.000002073009
   23     474949.065000000002        -0.000006070441
   24     117392.346000000005        -0.000016269174
   25      34065.440100000000        -0.000042539782
   26      11133.885300000000        -0.000111644751
   27       3988.280760000000        -0.000295059233
   28       1534.678610000000        -0.000752101572
   29        624.475513000000        -0.001705072467
   30        265.735250000000        -0.002950700419
   31        116.709586000000        -0.002360686727
   32         50.306071000000         0.003975590786
   33         23.036081700000         0.009372950890
   34         10.586238100000         0.003631007759
   35          4.798113940000         0.000148579596
   36          2.133543170000         0.000040656866
   37          0.857316380000        -0.000013331018
   38          0.378404470000         0.000006173486
   39          0.152386050000        -0.000002870420
   40   18535881.300000000745        -0.000000101722
   41    2419299.990000000224        -0.000000328597
   42     474949.065000000002        -0.000000962587
   43     117392.346000000005        -0.000002580949
   44      34065.440100000000        -0.000006755071
   45      11133.885300000000        -0.000017757564
   46       3988.280760000000        -0.000047099586
   47       1534.678610000000        -0.000120974145
   48        624.475513000000        -0.000279058010
   49        265.735250000000        -0.000501715984
   50        116.709586000000        -0.000429250670
   51         50.306071000000         0.000895550014
   52         23.036081700000         0.003025889732
   53         10.586238100000         0.001217415030
   54          4.798113940000        -0.003953156891
   55          2.133543170000        -0.003364586261
   56          0.857316380000        -0.000183208421
   57          0.378404470000        -0.000033991680
   58          0.152386050000         0.000014057445
   59          0.060954420000        -0.000004688292
   60   18535881.300000000745        -0.000000010418
   61    2419299.990000000224        -0.000000033650
   62     474949.065000000002        -0.000000098554
   63     117392.346000000005        -0.000000264247
   64      34065.440100000000        -0.000000691754
   65      11133.885300000000        -0.000001818873
   66       3988.280760000000        -0.000004827156
   67       1534.678610000000        -0.000012413037
   68        624.475513000000        -0.000028713089
   69        265.735250000000        -0.000051932032
   70        116.709586000000        -0.000044951391
   71         50.306071000000         0.000097023361
   72         23.036081700000         0.000347749317
   73         10.586238100000         0.000144578869
   74          4.798113940000        -0.000601232971
   75          2.133543170000        -0.000937476390
   76          0.857316380000         0.000384059209
   77          0.378404470000         0.001407355158
   78          0.152386050000         0.000531932164
   79          0.060954420000        -0.000001648963
   80   18535881.300000000745        -0.000000013579
   81    2419299.990000000224        -0.000000043892
   82     474949.065000000002        -0.000000128296
   83     117392.346000000005        -0.000000345769
   84      34065.440100000000        -0.000000896189
   85      11133.885300000000        -0.000002397526
   86       3988.280760000000        -0.000006199183
   87       1534.678610000000        -0.000016545424
   88        624.475513000000        -0.000036413320
   89        265.735250000000        -0.000071353384
   90        116.709586000000        -0.000050023743
   91         50.306071000000         0.000106108910
   92         23.036081700000         0.000536650419
   93         10.586238100000         0.000029927191
   94          4.798113940000        -0.000609663114
   95          2.133543170000        -0.002234006736
   96          0.857316380000         0.003747284817
   97          0.378404470000         0.000768767082
   98          0.152386050000        -0.002762423398
   99          0.060954420000        -0.000063681108
 S 98
    1   18535881.300000000745         0.000002025138
    2    2419299.990000000224         0.000006534519
    3     474949.065000000002         0.000019098157
    4     117392.346000000005         0.000050999088
    5      34065.440100000000         0.000132418735
    6      11133.885300000000         0.000343077283
    7       3988.280760000000         0.000882454925
    8       1534.678610000000         0.002125011205
    9        624.475513000000         0.004241438280
   10        265.735250000000         0.005639447761
   11        116.709586000000         0.003352801643
   12         50.306071000000         0.000399622353
   13         23.036081700000         0.000008760902
   14         10.586238100000        -0.000008142569
   15          4.798113940000         0.000005612474
   16          2.133543170000        -0.000004006046
   17          0.857316380000         0.000002234050
   18          0.378404470000        -0.000001238878
   19   18535881.300000000745         0.000044453228
   20    2419299.990000000224         0.000143592013
   21     474949.065000000002         0.000420483814
   22     117392.346000000005         0.001126923774
   23      34065.440100000000         0.002946621109
   24      11133.885300000000         0.007733344315
   25       3988.280760000000         0.020437993060
   26       1534.678610000000         0.052096138627
   27        624.475513000000         0.118105977934
   28        265.735250000000         0.204387417666
   29        116.709586000000         0.163518689013
   30         50.306071000000        -0.275378933489
   31         23.036081700000        -0.649240165513
   32         10.586238100000        -0.251510554794
   33          4.798113940000        -0.010291725924
   34          2.133543170000        -0.002816196356
   35          0.857316380000         0.000923405255
   36          0.378404470000        -0.000427621487
   37          0.152386050000         0.000198826621
   38          0.060954420000        -0.000051850453
   39   18535881.300000000745         0.000000968529
   40    2419299.990000000224         0.000003128677
   41     474949.065000000002         0.000009165101
   42     117392.346000000005         0.000024574053
   43      34065.440100000000         0.000064317221
   44      11133.885300000000         0.000169075513
   45       3988.280760000000         0.000448450404
   46       1534.678610000000         0.001151833988
   47        624.475513000000         0.002657001621
   48        265.735250000000         0.004777000251
   49        116.709586000000         0.004087034544
   50         50.306071000000        -0.008526821509
   51         23.036081700000        -0.028810475394
   52         10.586238100000        -0.011591402486
   53          4.798113940000         0.037639286102
   54          2.133543170000         0.032035314653
   55          0.857316380000         0.001744386664
   56          0.378404470000         0.000323645782
   57          0.152386050000        -0.000133845483
   58          0.060954420000         0.000044638749
   59   18535881.300000000745         0.000000071662
   60    2419299.990000000224         0.000000231475
   61     474949.065000000002         0.000000677937
   62     117392.346000000005         0.000001817708
   63      34065.440100000000         0.000004758451
   64      11133.885300000000         0.000012511700
   65       3988.280760000000         0.000033205133
   66       1534.678610000000         0.000085387036
   67        624.475513000000         0.000197512150
   68        265.735250000000         0.000357231068
   69        116.709586000000         0.000309212499
   70         50.306071000000        -0.000667406168
   71         23.036081700000        -0.002392104719
   72         10.586238100000        -0.000994531916
   73          4.798113940000         0.004135772973
   74          2.133543170000         0.006448730698
   75          0.857316380000        -0.002641873905
   76          0.378404470000        -0.009680941849
   77          0.152386050000        -0.003659065245
   78          0.060954420000         0.000011342916
   79   18535881.300000000745         0.000000082854
   80    2419299.990000000224         0.000000267808
   81     474949.065000000002         0.000000782805
   82     117392.346000000005         0.000002109724
   83      34065.440100000000         0.000005468137
   84      11133.885300000000         0.000014628605
   85       3988.280760000000         0.000037824574
   86       1534.678610000000         0.000100952593
   87        624.475513000000         0.000222177385
   88        265.735250000000         0.000435365635
   89        116.709586000000         0.000305221941
   90         50.306071000000        -0.000647427916
   91         23.036081700000        -0.003274394794
   92         10.586238100000        -0.000182601997
   93          4.798113940000         0.003719884781
   94          2.133543170000         0.013630884780
   95          0.857316380000        -0.022864213774
   96          0.378404470000        -0.004690664245
   97          0.152386050000         0.016855040968
   98          0.060954420000         0.000388552925
 S 98
    1   18535881.300000000745         0.000000724160
    2    2419299.990000000224         0.000002336651
    3     474949.065000000002         0.000006829228
    4     117392.346000000005         0.000018236544
    5      34065.440100000000         0.000047351045
    6      11133.885300000000         0.000122679529
    7       3988.280760000000         0.000315553258
    8       1534.678610000000         0.000759873608
    9        624.475513000000         0.001516677654
   10        265.735250000000         0.002016585846
   11        116.709586000000         0.001198913905
   12         50.306071000000         0.000142899237
   13         23.036081700000         0.000003132773
   14         10.586238100000        -0.000002911666
   15          4.798113940000         0.000002006940
   16          2.133543170000        -0.000001432505
   17          0.857316380000         0.000000798864
   18          0.378404470000        -0.000000443005
   19   18535881.300000000745        -0.000002516128
   20    2419299.990000000224        -0.000008127551
   21     474949.065000000002        -0.000023800095
   22     117392.346000000005        -0.000063785790
   23      34065.440100000000        -0.000166783735
   24      11133.885300000000        -0.000437720360
   25       3988.280760000000        -0.001156824953
   26       1534.678610000000        -0.002948729503
   27        624.475513000000        -0.006684997982
   28        265.735250000000        -0.011568673309
   29        116.709586000000        -0.009255434188
   30         50.306071000000         0.015586913100
   31         23.036081700000         0.036748090758
   32         10.586238100000         0.014235922521
   33          4.798113940000         0.000582529083
   34          2.133543170000         0.000159401474
   35          0.857316380000        -0.000052266298
   36          0.378404470000         0.000024204099
   37          0.152386050000        -0.000011253923
   38          0.060954420000         0.000002934823
   39   18535881.300000000745         0.000017549537
   40    2419299.990000000224         0.000056690975
   41     474949.065000000002         0.000166069712
   42     117392.346000000005         0.000445276678
   43      34065.440100000000         0.001165414537
   44      11133.885300000000         0.003063612777
   45       3988.280760000000         0.008125827114
   46       1534.678610000000         0.020870989900
   47        624.475513000000         0.048144311230
   48        265.735250000000         0.086558241085
   49        116.709586000000         0.074056207412
   50         50.306071000000        -0.154504214574
   51         23.036081700000        -0.522039762141
   52         10.586238100000        -0.210033778120
   53          4.798113940000         0.682015957568
   54          2.133543170000         0.580473172100
   55          0.857316380000         0.031607919924
   56          0.378404470000         0.005864393589
   57          0.152386050000        -0.002425252042
   58          0.060954420000         0.000808844748
   59   18535881.300000000745         0.000000854963
   60    2419299.990000000224         0.000002761620
   61     474949.065000000002         0.000008088130
   62     117392.346000000005         0.000021686189
   63      34065.440100000000         0.000056770747
   64      11133.885300000000         0.000149270972
   65       3988.280760000000         0.000396154199
   66       1534.678610000000         0.001018710964
   67        624.475513000000         0.002356420866
   68        265.735250000000         0.004261949173
   69        116.709586000000         0.003689063113
   70         50.306071000000        -0.007962496603
   71         23.036081700000        -0.028539031561
   72         10.586238100000        -0.011865273918
   73          4.798113940000         0.049341884771
   74          2.133543170000         0.076936652259
   75          0.857316380000        -0.031518905572
   76          0.378404470000        -0.115498582818
   77          0.152386050000        -0.043654517999
   78          0.060954420000         0.000135326787
   79   18535881.300000000745         0.000000861603
   80    2419299.990000000224         0.000002784939
   81     474949.065000000002         0.000008140392
   82     117392.346000000005         0.000021939032
   83      34065.440100000000         0.000056863184
   84      11133.885300000000         0.000152122922
   85       3988.280760000000         0.000393337909
   86       1534.678610000000         0.001049806446
   87        624.475513000000         0.002310423569
   88        265.735250000000         0.004527369085
   89        116.709586000000         0.003174004258
   90         50.306071000000        -0.006732605640
   91         23.036081700000        -0.034050445353
   92         10.586238100000        -0.001898878940
   93          4.798113940000         0.038683097618
   94          2.133543170000         0.141747628650
   95          0.857316380000        -0.237765056035
   96          0.378404470000        -0.048778237378
   97          0.152386050000         0.175275642527
   98          0.060954420000         0.004040563519
 S 96
    1   18535881.300000000745        -0.000000190756
    2    2419299.990000000224        -0.000000615515
    3     474949.065000000002        -0.000001798938
    4     117392.346000000005        -0.000004803825
    5      34065.440100000000        -0.000012473093
    6      11133.885300000000        -0.000032315932
    7       3988.280760000000        -0.000083122244
    8       1534.678610000000        -0.000200163990
    9        624.475513000000        -0.000399519404
   10        265.735250000000        -0.000531203960
   11        116.709586000000        -0.000315814878
   12         50.306071000000        -0.000037642157
   13         23.036081700000        -0.000000825227
   14         10.586238100000         0.000000766984
   15          4.798113940000        -0.000000528663
   16          2.133543170000         0.000000377347
   17          0.857316380000        -0.000000210435
   18   18535881.300000000745         0.000000284576
   19    2419299.990000000224         0.000000919232
   20     474949.065000000002         0.000002691809
   21     117392.346000000005         0.000007214223
   22      34065.440100000000         0.000018863371
   23      11133.885300000000         0.000049506514
   24       3988.280760000000         0.000130837805
   25       1534.678610000000         0.000333503609
   26        624.475513000000         0.000756078491
   27        265.735250000000         0.001308425983
   28        116.709586000000         0.001046796833
   29         50.306071000000        -0.001762892041
   30         23.036081700000        -0.004156237755
   31         10.586238100000        -0.001610093951
   32          4.798113940000        -0.000065884494
   33          2.133543170000        -0.000018028431
   34          0.857316380000         0.000005911359
   35          0.378404470000        -0.000002737502
   36          0.152386050000         0.000001272827
   37   18535881.300000000745         0.000003518520
   38    2419299.990000000224         0.000011366016
   39     474949.065000000002         0.000033295442
   40     117392.346000000005         0.000089273858
   41      34065.440100000000         0.000233654843
   42      11133.885300000000         0.000614226045
   43       3988.280760000000         0.001629153230
   44       1534.678610000000         0.004184440567
   45        624.475513000000         0.009652489410
   46        265.735250000000         0.017354127291
   47        116.709586000000         0.014847585095
   48         50.306071000000        -0.030976666960
   49         23.036081700000        -0.104664147166
   50         10.586238100000        -0.042109831199
   51          4.798113940000         0.136737895711
   52          2.133543170000         0.116379505770
   53          0.857316380000         0.006337095797
   54          0.378404470000         0.001175756711
   55          0.152386050000        -0.000486240618
   56          0.060954420000         0.000162165896
   57   18535881.300000000745        -0.000004670788
   58    2419299.990000000224        -0.000015087129
   59     474949.065000000002        -0.000044186622
   60     117392.346000000005        -0.000118474773
   61      34065.440100000000        -0.000310146770
   62      11133.885300000000        -0.000815488830
   63       3988.280760000000        -0.002164247474
   64       1534.678610000000        -0.005565364791
   65        624.475513000000        -0.012873466746
   66        265.735250000000        -0.023283642471
   67        116.709586000000        -0.020153883375
   68         50.306071000000         0.043500266323
   69         23.036081700000         0.155912841830
   70         10.586238100000         0.064821701173
   71          4.798113940000        -0.269561826567
   72          2.133543170000        -0.420316017700
   73          0.857316380000         0.172192322948
   74          0.378404470000         0.630985401037
   75          0.152386050000         0.238490922351
   76          0.060954420000        -0.000739309736
   77   18535881.300000000745        -0.000003682076
   78    2419299.990000000224        -0.000011901492
   79     474949.065000000002        -0.000034788122
   80     117392.346000000005        -0.000093756877
   81      34065.440100000000        -0.000243005917
   82      11133.885300000000        -0.000650100252
   83       3988.280760000000        -0.001680937172
   84       1534.678610000000        -0.004486368175
   85        624.475513000000        -0.009873639856
   86        265.735250000000        -0.019347799445
   87        116.709586000000        -0.013564168651
   88         50.306071000000         0.028771920562
   89         23.036081700000         0.145515237512
   90         10.586238100000         0.008114895917
   91          4.798113940000        -0.165312966666
   92          2.133543170000        -0.605761235603
   93          0.857316380000         1.016093570656
   94          0.378404470000         0.208454741898
   95          0.152386050000        -0.749043852088
   96          0.060954420000        -0.017267426434
 S 94
    1   18535881.300000000745        -0.000000068114
    2    2419299.990000000224        -0.000000219785
    3     474949.065000000002        -0.000000642357
    4     117392.346000000005        -0.000001715328
    5      34065.440100000000        -0.000004453835
    6      11133.885300000000        -0.000011539226
    7       3988.280760000000        -0.000029680911
    8       1534.678610000000        -0.000071473644
    9        624.475513000000        -0.000142658566
   10        265.735250000000        -0.000189679886
   11        116.709586000000        -0.000112769736
   12         50.306071000000        -0.000013441090
   13         23.036081700000        -0.000000294668
   14         10.586238100000         0.000000273871
   15          4.798113940000        -0.000000188773
   16          2.133543170000         0.000000134741
   17   18535881.300000000745         0.000000087440
   18    2419299.990000000224         0.000000282446
   19     474949.065000000002         0.000000827094
   20     117392.346000000005         0.000002216665
   21      34065.440100000000         0.000005796019
   22      11133.885300000000         0.000015211529
   23       3988.280760000000         0.000040201640
   24       1534.678610000000         0.000102473380
   25        624.475513000000         0.000232315083
   26        265.735250000000         0.000402031131
   27        116.709586000000         0.000321642125
   28         50.306071000000        -0.000541671818
   29         23.036081700000        -0.001277058837
   30         10.586238100000        -0.000494722590
   31          4.798113940000        -0.000020243879
   32          2.133543170000        -0.000005539473
   33          0.857316380000         0.000001816343
   34          0.378404470000        -0.000000841134
   35   18535881.300000000745         0.000000412641
   36    2419299.990000000224         0.000001332971
   37     474949.065000000002         0.000003904787
   38     117392.346000000005         0.000010469763
   39      34065.440100000000         0.000027402321
   40      11133.885300000000         0.000072034540
   41       3988.280760000000         0.000191062077
   42       1534.678610000000         0.000490738311
   43        624.475513000000         0.001132014250
   44        265.735250000000         0.002035238636
   45        116.709586000000         0.001741279082
   46         50.306071000000        -0.003632848162
   47         23.036081700000        -0.012274689046
   48         10.586238100000        -0.004938511398
   49          4.798113940000         0.016036199559
   50          2.133543170000         0.013648630246
   51          0.857316380000         0.000743195091
   52          0.378404470000         0.000137889128
   53          0.152386050000        -0.000057024803
   54          0.060954420000         0.000019018317
   55   18535881.300000000745         0.000003294835
   56    2419299.990000000224         0.000010642658
   57     474949.065000000002         0.000031169820
   58     117392.346000000005         0.000083573653
   59      34065.440100000000         0.000218781583
   60      11133.885300000000         0.000575256473
   61       3988.280760000000         0.001526688439
   62       1534.678610000000         0.003925881022
   63        624.475513000000         0.009081111604
   64        265.735250000000         0.016424585545
   65        116.709586000000         0.014216812596
   66         50.306071000000        -0.030685656093
   67         23.036081700000        -0.109982955260
   68         10.586238100000        -0.045726074750
   69          4.798113940000         0.190152433649
   70          2.133543170000         0.296496409322
   71          0.857316380000        -0.121466713893
   72          0.378404470000        -0.445105344226
   73          0.152386050000        -0.168234611947
   74          0.060954420000         0.000521518745
   75   18535881.300000000745        -0.000005445164
   76    2419299.990000000224        -0.000017600280
   77     474949.065000000002        -0.000051445709
   78     117392.346000000005        -0.000138650456
   79      34065.440100000000        -0.000359364374
   80      11133.885300000000        -0.000961387578
   81       3988.280760000000        -0.002485819858
   82       1534.678610000000        -0.006634574621
   83        624.475513000000        -0.014601432128
   84        265.735250000000        -0.028612100961
   85        116.709586000000        -0.020059095817
   86         50.306071000000         0.042548771416
   87         23.036081700000         0.215192258889
   88         10.586238100000         0.012000549310
   89          4.798113940000        -0.244469729278
   90          2.133543170000        -0.895817722358
   91          0.857316380000         1.502629377168
   92          0.378404470000         0.308269068944
   93          0.152386050000        -1.107708314903
   94          0.060954420000        -0.025535583510
 P 68
    1     178109.355000000010         0.000044883469
    2      27138.037499999999         0.000233272381
    3       6512.317450000000         0.001114617779
    4       2033.629170000000         0.004944281565
    5        749.824546000000         0.019490843321
    6        308.463093000000         0.064744528557
    7        137.031449000000         0.169432971137
    8         64.114040700000         0.319761808779
    9         31.107038200000         0.372694725476
   10         15.366235600000         0.201045591928
   11          7.391254080000         0.033581639925
   12          3.530697220000         0.001269291737
   13          1.678108190000         0.000449303368
   14          0.683391650000        -0.000070810378
   15          0.276466560000         0.000014997720
   16          0.105540690000        -0.000015496314
   17          0.042216280000         0.000003829205
   18     178109.355000000010         0.000001316601
   19      27138.037499999999         0.000006848617
   20       6512.317450000000         0.000032826255
   21       2033.629170000000         0.000146132712
   22        749.824546000000         0.000582622888
   23        308.463093000000         0.001974417144
   24        137.031449000000         0.005380979975
   25         64.114040700000         0.010689332818
   26         31.107038200000         0.013003713007
   27         15.366235600000        -0.000290691804
   28          7.391254080000        -0.027018812010
   29          3.530697220000        -0.036215156988
   30          1.678108190000        -0.015298585448
   31          0.683391650000        -0.001185343453
   32          0.276466560000        -0.000010425420
   33          0.105540690000        -0.000033350318
   34          0.042216280000         0.000005234904
   35     178109.355000000010         0.000000077640
   36      27138.037499999999         0.000000402938
   37       6512.317450000000         0.000001939330
   38       2033.629170000000         0.000008592519
   39        749.824546000000         0.000034522926
   40        308.463093000000         0.000116495163
   41        137.031449000000         0.000321839099
   42         64.114040700000         0.000637233923
   43         31.107038200000         0.000796273247
   44         15.366235600000        -0.000137000947
   45          7.391254080000        -0.001961743892
   46          3.530697220000        -0.003170358395
   47          1.678108190000        -0.000555424260
   48          0.683391650000         0.006184948072
   49          0.276466560000         0.008329312741
   50          0.105540690000         0.003068199443
   51          0.042216280000         0.000016650675
   52     178109.355000000010         0.000000094767
   53      27138.037499999999         0.000000488291
   54       6512.317450000000         0.000002382665
   55       2033.629170000000         0.000010357541
   56        749.824546000000         0.000042583912
   57        308.463093000000         0.000140194472
   58        137.031449000000         0.000399694540
   59         64.114040700000         0.000760328088
   60         31.107038200000         0.001021187981
   61         15.366235600000        -0.000293340207
   62          7.391254080000        -0.002397689551
   63          3.530697220000        -0.004331249489
   64          1.678108190000        -0.000443529536
   65          0.683391650000         0.017197264850
   66          0.276466560000        -0.003560776844
   67          0.105540690000        -0.013062906948
   68          0.042216280000        -0.000581729245
 P 66
    1     178109.355000000010        -0.000003352082
    2      27138.037499999999        -0.000017421739
    3       6512.317450000000        -0.000083244229
    4       2033.629170000000        -0.000369259234
    5        749.824546000000        -0.001455656151
    6        308.463093000000        -0.004835387041
    7        137.031449000000        -0.012653949473
    8         64.114040700000        -0.023881123872
    9         31.107038200000        -0.027834371277
   10         15.366235600000        -0.015014909702
   11          7.391254080000        -0.002508014656
   12          3.530697220000        -0.000094795915
   13          1.678108190000        -0.000033555819
   14          0.683391650000         0.000005288410
   15          0.276466560000        -0.000001120091
   16     178109.355000000010         0.000018009177
   17      27138.037499999999         0.000093679057
   18       6512.317450000000         0.000449015101
   19       2033.629170000000         0.001998881536
   20        749.824546000000         0.007969428017
   21        308.463093000000         0.027007135560
   22        137.031449000000         0.073603927130
   23         64.114040700000         0.146214421447
   24         31.107038200000         0.177871753681
   25         15.366235600000        -0.003976238238
   26          7.391254080000        -0.369577786893
   27          3.530697220000        -0.495370320748
   28          1.678108190000        -0.209262248476
   29          0.683391650000        -0.016213762840
   30          0.276466560000        -0.000142604478
   31          0.105540690000        -0.000456183517
   32          0.042216280000         0.000071605819
   33     178109.355000000010         0.000000703918
   34      27138.037499999999         0.000003653211
   35       6512.317450000000         0.000017582802
   36       2033.629170000000         0.000077903493
   37        749.824546000000         0.000312999767
   38        308.463093000000         0.001056195480
   39        137.031449000000         0.002917932334
   40         64.114040700000         0.005777438081
   41         31.107038200000         0.007219357305
   42         15.366235600000        -0.001242109776
   43          7.391254080000        -0.017786017749
   44          3.530697220000        -0.028743839051
   45          1.678108190000        -0.005035716326
   46          0.683391650000         0.056075411603
   47          0.276466560000         0.075517148227
   48          0.105540690000         0.027817621857
   49          0.042216280000         0.000150962210
   50     178109.355000000010         0.000000757069
   51      27138.037499999999         0.000003900829
   52       6512.317450000000         0.000019034508
   53       2033.629170000000         0.000082743779
   54        749.824546000000         0.000340192109
   55        308.463093000000         0.001119978189
   56        137.031449000000         0.003193058620
   57         64.114040700000         0.006074068846
   58         31.107038200000         0.008158012575
   59         15.366235600000        -0.002343420747
   60          7.391254080000        -0.019154535582
   61          3.530697220000        -0.034601257032
   62          1.678108190000        -0.003543245322
   63          0.683391650000         0.137384600647
   64          0.276466560000        -0.028446145887
   65          0.105540690000        -0.104356260717
   66          0.042216280000        -0.004647287852
 P 65
    1     178109.355000000010        -0.000000356194
    2      27138.037499999999        -0.000001851245
    3       6512.317450000000        -0.000008845586
    4       2033.629170000000        -0.000039237727
    5        749.824546000000        -0.000154678970
    6        308.463093000000        -0.000513811376
    7        137.031449000000        -0.001344616911
    8         64.114040700000        -0.002537623774
    9         31.107038200000        -0.002957698418
   10         15.366235600000        -0.001595494083
   11          7.391254080000        -0.000266503271
   12          3.530697220000        -0.000010073076
   13          1.678108190000        -0.000003565663
   14          0.683391650000         0.000000561950
   15     178109.355000000010        -0.000003458742
   16      27138.037499999999        -0.000017991479
   17       6512.317450000000        -0.000086235345
   18       2033.629170000000        -0.000383894078
   19        749.824546000000        -0.001530564050
   20        308.463093000000        -0.005186840348
   21        137.031449000000        -0.014135961148
   22         64.114040700000        -0.028081129112
   23         31.107038200000        -0.034161060388
   24         15.366235600000         0.000763654216
   25          7.391254080000         0.070979055610
   26          3.530697220000         0.095138070498
   27          1.678108190000         0.040189744347
   28          0.683391650000         0.003113925174
   29          0.276466560000         0.000027387823
   30          0.105540690000         0.000087612071
   31          0.042216280000        -0.000013752216
   32     178109.355000000010         0.000004051267
   33      27138.037499999999         0.000021025360
   34       6512.317450000000         0.000101194453
   35       2033.629170000000         0.000448358659
   36        749.824546000000         0.001801410318
   37        308.463093000000         0.006078731151
   38        137.031449000000         0.016793601669
   39         64.114040700000         0.033250940290
   40         31.107038200000         0.041549630708
   41         15.366235600000        -0.007148725339
   42          7.391254080000        -0.102364024659
   43          3.530697220000        -0.165429670144
   44          1.678108190000        -0.028982102540
   45          0.683391650000         0.322731310462
   46          0.276466560000         0.434624508548
   47          0.105540690000         0.160099004163
   48          0.042216280000         0.000868834139
   49     178109.355000000010         0.000003420038
   50      27138.037499999999         0.000017621889
   51       6512.317450000000         0.000085987860
   52       2033.629170000000         0.000373792718
   53        749.824546000000         0.001536808380
   54        308.463093000000         0.005059470279
   55        137.031449000000         0.014424553400
   56         64.114040700000         0.027439436869
   57         31.107038200000         0.036853594631
   58         15.366235600000        -0.010586337966
   59          7.391254080000        -0.086530081095
   60          3.530697220000        -0.156310215098
   61          1.678108190000        -0.016006512074
   62          0.683391650000         0.620631107666
   63          0.276466560000        -0.128504671901
   64          0.105540690000        -0.471426501774
   65          0.042216280000        -0.020993993460
 P 64
    1     178109.355000000010        -0.000000104812
    2      27138.037499999999        -0.000000544741
    3       6512.317450000000        -0.000002602871
    4       2033.629170000000        -0.000011545955
    5        749.824546000000        -0.000045515288
    6        308.463093000000        -0.000151192322
    7        137.031449000000        -0.000395662226
    8         64.114040700000        -0.000746712215
    9         31.107038200000        -0.000870321897
   10         15.366235600000        -0.000469484457
   11          7.391254080000        -0.000078420312
   12          3.530697220000        -0.000002964068
   13          1.678108190000        -0.000001049219
   14          0.683391650000         0.000000165357
   15     178109.355000000010        -0.000000406583
   16      27138.037499999999        -0.000002114938
   17       6512.317450000000        -0.000010137153
   18       2033.629170000000        -0.000045127585
   19        749.824546000000        -0.000179921138
   20        308.463093000000        -0.000609724381
   21        137.031449000000        -0.001661713025
   22         64.114040700000        -0.003300997895
   23         31.107038200000        -0.004015707060
   24         15.366235600000         0.000089769216
   25          7.391254080000         0.008343742598
   26          3.530697220000         0.011183687422
   27          1.678108190000         0.004724391992
   28          0.683391650000         0.000366048687
   29          0.276466560000         0.000003219498
   30          0.105540690000         0.000010298990
   31     178109.355000000010        -0.000003032789
   32      27138.037499999999        -0.000015739642
   33       6512.317450000000        -0.000075754446
   34       2033.629170000000        -0.000335642524
   35        749.824546000000        -0.001348540713
   36        308.463093000000        -0.004550554839
   37        137.031449000000        -0.012571736345
   38         64.114040700000        -0.024891745249
   39         31.107038200000        -0.031104167693
   40         15.366235600000         0.005351555428
   41          7.391254080000         0.076629990075
   42          3.530697220000         0.123841105540
   43          1.678108190000         0.021696081581
   44          0.683391650000        -0.241597545624
   45          0.276466560000        -0.325361101105
   46          0.105540690000        -0.119850554343
   47          0.042216280000        -0.000650411623
   48     178109.355000000010         0.000004746705
   49      27138.037499999999         0.000024457599
   50       6512.317450000000         0.000119343428
   51       2033.629170000000         0.000518790726
   52        749.824546000000         0.002132952026
   53        308.463093000000         0.007022090407
   54        137.031449000000         0.020019984794
   55         64.114040700000         0.038083474310
   56         31.107038200000         0.051149479892
   57         15.366235600000        -0.014692886443
   58          7.391254080000        -0.120095982150
   59          3.530697220000        -0.216944541885
   60          1.678108190000        -0.022215601372
   61          0.683391650000         0.861380244710
   62          0.276466560000        -0.178352944868
   63          0.105540690000        -0.654297650319
   64          0.042216280000        -0.029137777660
 D 22
    1        624.475513000000         0.000644421438
    2        265.735250000000         0.002247026786
    3        116.709586000000         0.013437096830
    4         50.306071000000         0.051626246807
    5         23.036081700000         0.147560726078
    6         10.586238100000         0.299363930235
    7          4.798113940000         0.382432374759
    8          2.133543170000         0.288651888110
    9          0.857316380000         0.082788553858
   10          0.342926550000         0.000347121964
   11          0.137170620000         0.001642112602
   12        624.475513000000         0.000032929675
   13        265.735250000000         0.000128667785
   14        116.709586000000         0.000698209153
   15         50.306071000000         0.002852890487
   16         23.036081700000         0.007778464454
   17         10.586238100000         0.017298931505
   18          4.798113940000         0.020261971867
   19          2.133543170000         0.019019041511
   20          0.857316380000        -0.076047832444
   21          0.342926550000        -0.104877097479
   22          0.137170620000        -0.016422114452
 D 22
    1        624.475513000000        -0.000112047918
    2        265.735250000000        -0.000390698785
    3        116.709586000000        -0.002336357290
    4         50.306071000000        -0.008976444808
    5         23.036081700000        -0.025656924440
    6         10.586238100000        -0.052051504098
    7          4.798113940000        -0.066494919099
    8          2.133543170000        -0.050188962061
    9          0.857316380000        -0.014394749384
   10          0.342926550000        -0.000060355368
   11          0.137170620000        -0.000285520138
   12        624.475513000000         0.000189388515
   13        265.735250000000         0.000740007322
   14        116.709586000000         0.004015611888
   15         50.306071000000         0.016407835532
   16         23.036081700000         0.044736300263
   17         10.586238100000         0.099491384008
   18          4.798113940000         0.116532724764
   19          2.133543170000         0.109384256592
   20          0.857316380000        -0.437374071258
   21          0.342926550000        -0.603179888657
   22          0.137170620000        -0.094448544105
 F 4
    1          1.688892000000         0.101187760149
    2          0.675557000000         0.759109881121
    3          0.270223000000         0.250714540370
    4          0.108089000000         0.004406980007
 end
  // -----------------------------------------------
  // The basis set
  // -----------------------------------------------
  BAS[ATNO] = new BFNGauss[NSH];
  // Basis function   1 L = s
  InitBFNGauss(BAS[ATNO][  0]);
  BAS[ATNO][  0].l  = 0;
  BAS[ATNO][  0].ng = 99;
  BAS[ATNO][  0].a[  0] =  18535881.300000000745;     BAS[ATNO][  0].d[  0] =         0.000137343011;
  BAS[ATNO][  0].a[  1] =   2419299.990000000224;     BAS[ATNO][  0].d[  1] =         0.000443165183;
  BAS[ATNO][  0].a[  2] =    474949.065000000002;     BAS[ATNO][  0].d[  2] =         0.001295219788;
  BAS[ATNO][  0].a[  3] =    117392.346000000005;     BAS[ATNO][  0].d[  3] =         0.003458712174;
  BAS[ATNO][  0].a[  4] =     34065.440100000000;     BAS[ATNO][  0].d[  4] =         0.008980519154;
  BAS[ATNO][  0].a[  5] =     11133.885300000000;     BAS[ATNO][  0].d[  5] =         0.023267191962;
  BAS[ATNO][  0].a[  6] =      3988.280760000000;     BAS[ATNO][  0].d[  6] =         0.059847297182;
  BAS[ATNO][  0].a[  7] =      1534.678610000000;     BAS[ATNO][  0].d[  7] =         0.144116343513;
  BAS[ATNO][  0].a[  8] =       624.475513000000;     BAS[ATNO][  0].d[  8] =         0.287650519037;
  BAS[ATNO][  0].a[  9] =       265.735250000000;     BAS[ATNO][  0].d[  9] =         0.382462261288;
  BAS[ATNO][  0].a[ 10] =       116.709586000000;     BAS[ATNO][  0].d[ 10] =         0.227383983713;
  BAS[ATNO][  0].a[ 11] =        50.306071000000;     BAS[ATNO][  0].d[ 11] =         0.027102027612;
  BAS[ATNO][  0].a[ 12] =        23.036081700000;     BAS[ATNO][  0].d[ 12] =         0.000594156506;
  BAS[ATNO][  0].a[ 13] =        10.586238100000;     BAS[ATNO][  0].d[ 13] =        -0.000552221693;
  BAS[ATNO][  0].a[ 14] =         4.798113940000;     BAS[ATNO][  0].d[ 14] =         0.000380632918;
  BAS[ATNO][  0].a[ 15] =         2.133543170000;     BAS[ATNO][  0].d[ 15] =        -0.000271686394;
  BAS[ATNO][  0].a[ 16] =         0.857316380000;     BAS[ATNO][  0].d[ 16] =         0.000151511259;
  BAS[ATNO][  0].a[ 17] =         0.378404470000;     BAS[ATNO][  0].d[ 17] =        -0.000084019607;
  BAS[ATNO][  0].a[ 18] =         0.152386050000;     BAS[ATNO][  0].d[ 18] =         0.000035795572;
  BAS[ATNO][  0].a[ 19] =         0.060954420000;     BAS[ATNO][  0].d[ 19] =        -0.000009808787;
  BAS[ATNO][  0].a[ 20] =  18535881.300000000745;     BAS[ATNO][  0].d[ 20] =        -0.000000641762;
  BAS[ATNO][  0].a[ 21] =   2419299.990000000224;     BAS[ATNO][  0].d[ 21] =        -0.000002073009;
  BAS[ATNO][  0].a[ 22] =    474949.065000000002;     BAS[ATNO][  0].d[ 22] =        -0.000006070441;
  BAS[ATNO][  0].a[ 23] =    117392.346000000005;     BAS[ATNO][  0].d[ 23] =        -0.000016269174;
  BAS[ATNO][  0].a[ 24] =     34065.440100000000;     BAS[ATNO][  0].d[ 24] =        -0.000042539782;
  BAS[ATNO][  0].a[ 25] =     11133.885300000000;     BAS[ATNO][  0].d[ 25] =        -0.000111644751;
  BAS[ATNO][  0].a[ 26] =      3988.280760000000;     BAS[ATNO][  0].d[ 26] =        -0.000295059233;
  BAS[ATNO][  0].a[ 27] =      1534.678610000000;     BAS[ATNO][  0].d[ 27] =        -0.000752101572;
  BAS[ATNO][  0].a[ 28] =       624.475513000000;     BAS[ATNO][  0].d[ 28] =        -0.001705072467;
  BAS[ATNO][  0].a[ 29] =       265.735250000000;     BAS[ATNO][  0].d[ 29] =        -0.002950700419;
  BAS[ATNO][  0].a[ 30] =       116.709586000000;     BAS[ATNO][  0].d[ 30] =        -0.002360686727;
  BAS[ATNO][  0].a[ 31] =        50.306071000000;     BAS[ATNO][  0].d[ 31] =         0.003975590786;
  BAS[ATNO][  0].a[ 32] =        23.036081700000;     BAS[ATNO][  0].d[ 32] =         0.009372950890;
  BAS[ATNO][  0].a[ 33] =        10.586238100000;     BAS[ATNO][  0].d[ 33] =         0.003631007759;
  BAS[ATNO][  0].a[ 34] =         4.798113940000;     BAS[ATNO][  0].d[ 34] =         0.000148579596;
  BAS[ATNO][  0].a[ 35] =         2.133543170000;     BAS[ATNO][  0].d[ 35] =         0.000040656866;
  BAS[ATNO][  0].a[ 36] =         0.857316380000;     BAS[ATNO][  0].d[ 36] =        -0.000013331018;
  BAS[ATNO][  0].a[ 37] =         0.378404470000;     BAS[ATNO][  0].d[ 37] =         0.000006173486;
  BAS[ATNO][  0].a[ 38] =         0.152386050000;     BAS[ATNO][  0].d[ 38] =        -0.000002870420;
  BAS[ATNO][  0].a[ 39] =  18535881.300000000745;     BAS[ATNO][  0].d[ 39] =        -0.000000101722;
  BAS[ATNO][  0].a[ 40] =   2419299.990000000224;     BAS[ATNO][  0].d[ 40] =        -0.000000328597;
  BAS[ATNO][  0].a[ 41] =    474949.065000000002;     BAS[ATNO][  0].d[ 41] =        -0.000000962587;
  BAS[ATNO][  0].a[ 42] =    117392.346000000005;     BAS[ATNO][  0].d[ 42] =        -0.000002580949;
  BAS[ATNO][  0].a[ 43] =     34065.440100000000;     BAS[ATNO][  0].d[ 43] =        -0.000006755071;
  BAS[ATNO][  0].a[ 44] =     11133.885300000000;     BAS[ATNO][  0].d[ 44] =        -0.000017757564;
  BAS[ATNO][  0].a[ 45] =      3988.280760000000;     BAS[ATNO][  0].d[ 45] =        -0.000047099586;
  BAS[ATNO][  0].a[ 46] =      1534.678610000000;     BAS[ATNO][  0].d[ 46] =        -0.000120974145;
  BAS[ATNO][  0].a[ 47] =       624.475513000000;     BAS[ATNO][  0].d[ 47] =        -0.000279058010;
  BAS[ATNO][  0].a[ 48] =       265.735250000000;     BAS[ATNO][  0].d[ 48] =        -0.000501715984;
  BAS[ATNO][  0].a[ 49] =       116.709586000000;     BAS[ATNO][  0].d[ 49] =        -0.000429250670;
  BAS[ATNO][  0].a[ 50] =        50.306071000000;     BAS[ATNO][  0].d[ 50] =         0.000895550014;
  BAS[ATNO][  0].a[ 51] =        23.036081700000;     BAS[ATNO][  0].d[ 51] =         0.003025889732;
  BAS[ATNO][  0].a[ 52] =        10.586238100000;     BAS[ATNO][  0].d[ 52] =         0.001217415030;
  BAS[ATNO][  0].a[ 53] =         4.798113940000;     BAS[ATNO][  0].d[ 53] =        -0.003953156891;
  BAS[ATNO][  0].a[ 54] =         2.133543170000;     BAS[ATNO][  0].d[ 54] =        -0.003364586261;
  BAS[ATNO][  0].a[ 55] =         0.857316380000;     BAS[ATNO][  0].d[ 55] =        -0.000183208421;
  BAS[ATNO][  0].a[ 56] =         0.378404470000;     BAS[ATNO][  0].d[ 56] =        -0.000033991680;
  BAS[ATNO][  0].a[ 57] =         0.152386050000;     BAS[ATNO][  0].d[ 57] =         0.000014057445;
  BAS[ATNO][  0].a[ 58] =         0.060954420000;     BAS[ATNO][  0].d[ 58] =        -0.000004688292;
  BAS[ATNO][  0].a[ 59] =  18535881.300000000745;     BAS[ATNO][  0].d[ 59] =        -0.000000010418;
  BAS[ATNO][  0].a[ 60] =   2419299.990000000224;     BAS[ATNO][  0].d[ 60] =        -0.000000033650;
  BAS[ATNO][  0].a[ 61] =    474949.065000000002;     BAS[ATNO][  0].d[ 61] =        -0.000000098554;
  BAS[ATNO][  0].a[ 62] =    117392.346000000005;     BAS[ATNO][  0].d[ 62] =        -0.000000264247;
  BAS[ATNO][  0].a[ 63] =     34065.440100000000;     BAS[ATNO][  0].d[ 63] =        -0.000000691754;
  BAS[ATNO][  0].a[ 64] =     11133.885300000000;     BAS[ATNO][  0].d[ 64] =        -0.000001818873;
  BAS[ATNO][  0].a[ 65] =      3988.280760000000;     BAS[ATNO][  0].d[ 65] =        -0.000004827156;
  BAS[ATNO][  0].a[ 66] =      1534.678610000000;     BAS[ATNO][  0].d[ 66] =        -0.000012413037;
  BAS[ATNO][  0].a[ 67] =       624.475513000000;     BAS[ATNO][  0].d[ 67] =        -0.000028713089;
  BAS[ATNO][  0].a[ 68] =       265.735250000000;     BAS[ATNO][  0].d[ 68] =        -0.000051932032;
  BAS[ATNO][  0].a[ 69] =       116.709586000000;     BAS[ATNO][  0].d[ 69] =        -0.000044951391;
  BAS[ATNO][  0].a[ 70] =        50.306071000000;     BAS[ATNO][  0].d[ 70] =         0.000097023361;
  BAS[ATNO][  0].a[ 71] =        23.036081700000;     BAS[ATNO][  0].d[ 71] =         0.000347749317;
  BAS[ATNO][  0].a[ 72] =        10.586238100000;     BAS[ATNO][  0].d[ 72] =         0.000144578869;
  BAS[ATNO][  0].a[ 73] =         4.798113940000;     BAS[ATNO][  0].d[ 73] =        -0.000601232971;
  BAS[ATNO][  0].a[ 74] =         2.133543170000;     BAS[ATNO][  0].d[ 74] =        -0.000937476390;
  BAS[ATNO][  0].a[ 75] =         0.857316380000;     BAS[ATNO][  0].d[ 75] =         0.000384059209;
  BAS[ATNO][  0].a[ 76] =         0.378404470000;     BAS[ATNO][  0].d[ 76] =         0.001407355158;
  BAS[ATNO][  0].a[ 77] =         0.152386050000;     BAS[ATNO][  0].d[ 77] =         0.000531932164;
  BAS[ATNO][  0].a[ 78] =         0.060954420000;     BAS[ATNO][  0].d[ 78] =        -0.000001648963;
  BAS[ATNO][  0].a[ 79] =  18535881.300000000745;     BAS[ATNO][  0].d[ 79] =        -0.000000013579;
  BAS[ATNO][  0].a[ 80] =   2419299.990000000224;     BAS[ATNO][  0].d[ 80] =        -0.000000043892;
  BAS[ATNO][  0].a[ 81] =    474949.065000000002;     BAS[ATNO][  0].d[ 81] =        -0.000000128296;
  BAS[ATNO][  0].a[ 82] =    117392.346000000005;     BAS[ATNO][  0].d[ 82] =        -0.000000345769;
  BAS[ATNO][  0].a[ 83] =     34065.440100000000;     BAS[ATNO][  0].d[ 83] =        -0.000000896189;
  BAS[ATNO][  0].a[ 84] =     11133.885300000000;     BAS[ATNO][  0].d[ 84] =        -0.000002397526;
  BAS[ATNO][  0].a[ 85] =      3988.280760000000;     BAS[ATNO][  0].d[ 85] =        -0.000006199183;
  BAS[ATNO][  0].a[ 86] =      1534.678610000000;     BAS[ATNO][  0].d[ 86] =        -0.000016545424;
  BAS[ATNO][  0].a[ 87] =       624.475513000000;     BAS[ATNO][  0].d[ 87] =        -0.000036413320;
  BAS[ATNO][  0].a[ 88] =       265.735250000000;     BAS[ATNO][  0].d[ 88] =        -0.000071353384;
  BAS[ATNO][  0].a[ 89] =       116.709586000000;     BAS[ATNO][  0].d[ 89] =        -0.000050023743;
  BAS[ATNO][  0].a[ 90] =        50.306071000000;     BAS[ATNO][  0].d[ 90] =         0.000106108910;
  BAS[ATNO][  0].a[ 91] =        23.036081700000;     BAS[ATNO][  0].d[ 91] =         0.000536650419;
  BAS[ATNO][  0].a[ 92] =        10.586238100000;     BAS[ATNO][  0].d[ 92] =         0.000029927191;
  BAS[ATNO][  0].a[ 93] =         4.798113940000;     BAS[ATNO][  0].d[ 93] =        -0.000609663114;
  BAS[ATNO][  0].a[ 94] =         2.133543170000;     BAS[ATNO][  0].d[ 94] =        -0.002234006736;
  BAS[ATNO][  0].a[ 95] =         0.857316380000;     BAS[ATNO][  0].d[ 95] =         0.003747284817;
  BAS[ATNO][  0].a[ 96] =         0.378404470000;     BAS[ATNO][  0].d[ 96] =         0.000768767082;
  BAS[ATNO][  0].a[ 97] =         0.152386050000;     BAS[ATNO][  0].d[ 97] =        -0.002762423398;
  BAS[ATNO][  0].a[ 98] =         0.060954420000;     BAS[ATNO][  0].d[ 98] =        -0.000063681108;

  // Basis function   2 L = s
  InitBFNGauss(BAS[ATNO][  1]);
  BAS[ATNO][  1].l  = 0;
  BAS[ATNO][  1].ng = 98;
  BAS[ATNO][  1].a[  0] =  18535881.300000000745;     BAS[ATNO][  1].d[  0] =        -0.000002025138;
  BAS[ATNO][  1].a[  1] =   2419299.990000000224;     BAS[ATNO][  1].d[  1] =        -0.000006534519;
  BAS[ATNO][  1].a[  2] =    474949.065000000002;     BAS[ATNO][  1].d[  2] =        -0.000019098157;
  BAS[ATNO][  1].a[  3] =    117392.346000000005;     BAS[ATNO][  1].d[  3] =        -0.000050999088;
[...]
  BAS[ATNO][  7].a[ 21] =        64.114040700000;     BAS[ATNO][  7].d[ 21] =        -0.028081129112;
  BAS[ATNO][  7].a[ 22] =        31.107038200000;     BAS[ATNO][  7].d[ 22] =        -0.034161060388;
  BAS[ATNO][  7].a[ 23] =        15.366235600000;     BAS[ATNO][  7].d[ 23] =         0.000763654216;
  BAS[ATNO][  7].a[ 24] =         7.391254080000;     BAS[ATNO][  7].d[ 24] =         0.070979055610;
  BAS[ATNO][  7].a[ 25] =         3.530697220000;     BAS[ATNO][  7].d[ 25] =         0.095138070498;
  BAS[ATNO][  7].a[ 26] =         1.678108190000;     BAS[ATNO][  7].d[ 26] =         0.040189744347;
  BAS[ATNO][  7].a[ 27] =         0.683391650000;     BAS[ATNO][  7].d[ 27] =         0.003113925174;
  BAS[ATNO][  7].a[ 28] =         0.276466560000;     BAS[ATNO][  7].d[ 28] =         0.000027387823;
  BAS[ATNO][  7].a[ 29] =         0.105540690000;     BAS[ATNO][  7].d[ 29] =         0.000087612071;
  BAS[ATNO][  7].a[ 30] =         0.042216280000;     BAS[ATNO][  7].d[ 30] =        -0.000013752216;
  BAS[ATNO][  7].a[ 31] =    178109.355000000010;     BAS[ATNO][  7].d[ 31] =         0.000004051267;
  BAS[ATNO][  7].a[ 32] =     27138.037499999999;     BAS[ATNO][  7].d[ 32] =         0.000021025360;
  BAS[ATNO][  7].a[ 33] =      6512.317450000000;     BAS[ATNO][  7].d[ 33] =         0.000101194453;
  BAS[ATNO][  7].a[ 34] =      2033.629170000000;     BAS[ATNO][  7].d[ 34] =         0.000448358659;
  BAS[ATNO][  7].a[ 35] =       749.824546000000;     BAS[ATNO][  7].d[ 35] =         0.001801410318;
  BAS[ATNO][  7].a[ 36] =       308.463093000000;     BAS[ATNO][  7].d[ 36] =         0.006078731151;
  BAS[ATNO][  7].a[ 37] =       137.031449000000;     BAS[ATNO][  7].d[ 37] =         0.016793601669;
  BAS[ATNO][  7].a[ 38] =        64.114040700000;     BAS[ATNO][  7].d[ 38] =         0.033250940290;
  BAS[ATNO][  7].a[ 39] =        31.107038200000;     BAS[ATNO][  7].d[ 39] =         0.041549630708;
  BAS[ATNO][  7].a[ 40] =        15.366235600000;     BAS[ATNO][  7].d[ 40] =        -0.007148725339;
  BAS[ATNO][  7].a[ 41] =         7.391254080000;     BAS[ATNO][  7].d[ 41] =        -0.102364024659;
  BAS[ATNO][  7].a[ 42] =         3.530697220000;     BAS[ATNO][  7].d[ 42] =        -0.165429670144;
  BAS[ATNO][  7].a[ 43] =         1.678108190000;     BAS[ATNO][  7].d[ 43] =        -0.028982102540;
  BAS[ATNO][  7].a[ 44] =         0.683391650000;     BAS[ATNO][  7].d[ 44] =         0.322731310462;
  BAS[ATNO][  7].a[ 45] =         0.276466560000;     BAS[ATNO][  7].d[ 45] =         0.434624508548;
  BAS[ATNO][  7].a[ 46] =         0.105540690000;     BAS[ATNO][  7].d[ 46] =         0.160099004163;
  BAS[ATNO][  7].a[ 47] =         0.042216280000;     BAS[ATNO][  7].d[ 47] =         0.000868834139;
  BAS[ATNO][  7].a[ 48] =    178109.355000000010;     BAS[ATNO][  7].d[ 48] =         0.000003420038;
  BAS[ATNO][  7].a[ 49] =     27138.037499999999;     BAS[ATNO][  7].d[ 49] =         0.000017621889;
  BAS[ATNO][  7].a[ 50] =      6512.317450000000;     BAS[ATNO][  7].d[ 50] =         0.000085987860;
  BAS[ATNO][  7].a[ 51] =      2033.629170000000;     BAS[ATNO][  7].d[ 51] =         0.000373792718;
  BAS[ATNO][  7].a[ 52] =       749.824546000000;     BAS[ATNO][  7].d[ 52] =         0.001536808380;
  BAS[ATNO][  7].a[ 53] =       308.463093000000;     BAS[ATNO][  7].d[ 53] =         0.005059470279;
  BAS[ATNO][  7].a[ 54] =       137.031449000000;     BAS[ATNO][  7].d[ 54] =         0.014424553400;
  BAS[ATNO][  7].a[ 55] =        64.114040700000;     BAS[ATNO][  7].d[ 55] =         0.027439436869;
  BAS[ATNO][  7].a[ 56] =        31.107038200000;     BAS[ATNO][  7].d[ 56] =         0.036853594631;
  BAS[ATNO][  7].a[ 57] =        15.366235600000;     BAS[ATNO][  7].d[ 57] =        -0.010586337966;
  BAS[ATNO][  7].a[ 58] =         7.391254080000;     BAS[ATNO][  7].d[ 58] =        -0.086530081095;
  BAS[ATNO][  7].a[ 59] =         3.530697220000;     BAS[ATNO][  7].d[ 59] =        -0.156310215098;
  BAS[ATNO][  7].a[ 60] =         1.678108190000;     BAS[ATNO][  7].d[ 60] =        -0.016006512074;
  BAS[ATNO][  7].a[ 61] =         0.683391650000;     BAS[ATNO][  7].d[ 61] =         0.620631107666;
  BAS[ATNO][  7].a[ 62] =         0.276466560000;     BAS[ATNO][  7].d[ 62] =        -0.128504671901;
  BAS[ATNO][  7].a[ 63] =         0.105540690000;     BAS[ATNO][  7].d[ 63] =        -0.471426501774;
  BAS[ATNO][  7].a[ 64] =         0.042216280000;     BAS[ATNO][  7].d[ 64] =        -0.020993993460;

  // Basis function   9 L = p
  InitBFNGauss(BAS[ATNO][  8]);
  BAS[ATNO][  8].l  = 1;
  BAS[ATNO][  8].ng = 64;
  BAS[ATNO][  8].a[  0] =    178109.355000000010;     BAS[ATNO][  8].d[  0] =        -0.000000104812;
  BAS[ATNO][  8].a[  1] =     27138.037499999999;     BAS[ATNO][  8].d[  1] =        -0.000000544741;
  BAS[ATNO][  8].a[  2] =      6512.317450000000;     BAS[ATNO][  8].d[  2] =        -0.000002602871;
  BAS[ATNO][  8].a[  3] =      2033.629170000000;     BAS[ATNO][  8].d[  3] =        -0.000011545955;
  BAS[ATNO][  8].a[  4] =       749.824546000000;     BAS[ATNO][  8].d[  4] =        -0.000045515288;
  BAS[ATNO][  8].a[  5] =       308.463093000000;     BAS[ATNO][  8].d[  5] =        -0.000151192322;
  BAS[ATNO][  8].a[  6] =       137.031449000000;     BAS[ATNO][  8].d[  6] =        -0.000395662226;
  BAS[ATNO][  8].a[  7] =        64.114040700000;     BAS[ATNO][  8].d[  7] =        -0.000746712215;
  BAS[ATNO][  8].a[  8] =        31.107038200000;     BAS[ATNO][  8].d[  8] =        -0.000870321897;
  BAS[ATNO][  8].a[  9] =        15.366235600000;     BAS[ATNO][  8].d[  9] =        -0.000469484457;
  BAS[ATNO][  8].a[ 10] =         7.391254080000;     BAS[ATNO][  8].d[ 10] =        -0.000078420312;
  BAS[ATNO][  8].a[ 11] =         3.530697220000;     BAS[ATNO][  8].d[ 11] =        -0.000002964068;
  BAS[ATNO][  8].a[ 12] =         1.678108190000;     BAS[ATNO][  8].d[ 12] =        -0.000001049219;
  BAS[ATNO][  8].a[ 13] =         0.683391650000;     BAS[ATNO][  8].d[ 13] =         0.000000165357;
  BAS[ATNO][  8].a[ 14] =    178109.355000000010;     BAS[ATNO][  8].d[ 14] =        -0.000000406583;
  BAS[ATNO][  8].a[ 15] =     27138.037499999999;     BAS[ATNO][  8].d[ 15] =        -0.000002114938;
  BAS[ATNO][  8].a[ 16] =      6512.317450000000;     BAS[ATNO][  8].d[ 16] =        -0.000010137153;
  BAS[ATNO][  8].a[ 17] =      2033.629170000000;     BAS[ATNO][  8].d[ 17] =        -0.000045127585;
  BAS[ATNO][  8].a[ 18] =       749.824546000000;     BAS[ATNO][  8].d[ 18] =        -0.000179921138;
  BAS[ATNO][  8].a[ 19] =       308.463093000000;     BAS[ATNO][  8].d[ 19] =        -0.000609724381;
  BAS[ATNO][  8].a[ 20] =       137.031449000000;     BAS[ATNO][  8].d[ 20] =        -0.001661713025;
  BAS[ATNO][  8].a[ 21] =        64.114040700000;     BAS[ATNO][  8].d[ 21] =        -0.003300997895;
  BAS[ATNO][  8].a[ 22] =        31.107038200000;     BAS[ATNO][  8].d[ 22] =        -0.004015707060;
  BAS[ATNO][  8].a[ 23] =        15.366235600000;     BAS[ATNO][  8].d[ 23] =         0.000089769216;
  BAS[ATNO][  8].a[ 24] =         7.391254080000;     BAS[ATNO][  8].d[ 24] =         0.008343742598;
  BAS[ATNO][  8].a[ 25] =         3.530697220000;     BAS[ATNO][  8].d[ 25] =         0.011183687422;
  BAS[ATNO][  8].a[ 26] =         1.678108190000;     BAS[ATNO][  8].d[ 26] =         0.004724391992;
  BAS[ATNO][  8].a[ 27] =         0.683391650000;     BAS[ATNO][  8].d[ 27] =         0.000366048687;
  BAS[ATNO][  8].a[ 28] =         0.276466560000;     BAS[ATNO][  8].d[ 28] =         0.000003219498;
  BAS[ATNO][  8].a[ 29] =         0.105540690000;     BAS[ATNO][  8].d[ 29] =         0.000010298990;
  BAS[ATNO][  8].a[ 30] =    178109.355000000010;     BAS[ATNO][  8].d[ 30] =        -0.000003032789;
  BAS[ATNO][  8].a[ 31] =     27138.037499999999;     BAS[ATNO][  8].d[ 31] =        -0.000015739642;
  BAS[ATNO][  8].a[ 32] =      6512.317450000000;     BAS[ATNO][  8].d[ 32] =        -0.000075754446;
  BAS[ATNO][  8].a[ 33] =      2033.629170000000;     BAS[ATNO][  8].d[ 33] =        -0.000335642524;
  BAS[ATNO][  8].a[ 34] =       749.824546000000;     BAS[ATNO][  8].d[ 34] =        -0.001348540713;
  BAS[ATNO][  8].a[ 35] =       308.463093000000;     BAS[ATNO][  8].d[ 35] =        -0.004550554839;
  BAS[ATNO][  8].a[ 36] =       137.031449000000;     BAS[ATNO][  8].d[ 36] =        -0.012571736345;
  BAS[ATNO][  8].a[ 37] =        64.114040700000;     BAS[ATNO][  8].d[ 37] =        -0.024891745249;
  BAS[ATNO][  8].a[ 38] =        31.107038200000;     BAS[ATNO][  8].d[ 38] =        -0.031104167693;
  BAS[ATNO][  8].a[ 39] =        15.366235600000;     BAS[ATNO][  8].d[ 39] =         0.005351555428;
  BAS[ATNO][  8].a[ 40] =         7.391254080000;     BAS[ATNO][  8].d[ 40] =         0.076629990075;
  BAS[ATNO][  8].a[ 41] =         3.530697220000;     BAS[ATNO][  8].d[ 41] =         0.123841105540;
  BAS[ATNO][  8].a[ 42] =         1.678108190000;     BAS[ATNO][  8].d[ 42] =         0.021696081581;
  BAS[ATNO][  8].a[ 43] =         0.683391650000;     BAS[ATNO][  8].d[ 43] =        -0.241597545624;
  BAS[ATNO][  8].a[ 44] =         0.276466560000;     BAS[ATNO][  8].d[ 44] =        -0.325361101105;
  BAS[ATNO][  8].a[ 45] =         0.105540690000;     BAS[ATNO][  8].d[ 45] =        -0.119850554343;
  BAS[ATNO][  8].a[ 46] =         0.042216280000;     BAS[ATNO][  8].d[ 46] =        -0.000650411623;
  BAS[ATNO][  8].a[ 47] =    178109.355000000010;     BAS[ATNO][  8].d[ 47] =         0.000004746705;
  BAS[ATNO][  8].a[ 48] =     27138.037499999999;     BAS[ATNO][  8].d[ 48] =         0.000024457599;
  BAS[ATNO][  8].a[ 49] =      6512.317450000000;     BAS[ATNO][  8].d[ 49] =         0.000119343428;
  BAS[ATNO][  8].a[ 50] =      2033.629170000000;     BAS[ATNO][  8].d[ 50] =         0.000518790726;
  BAS[ATNO][  8].a[ 51] =       749.824546000000;     BAS[ATNO][  8].d[ 51] =         0.002132952026;
  BAS[ATNO][  8].a[ 52] =       308.463093000000;     BAS[ATNO][  8].d[ 52] =         0.007022090407;
  BAS[ATNO][  8].a[ 53] =       137.031449000000;     BAS[ATNO][  8].d[ 53] =         0.020019984794;
  BAS[ATNO][  8].a[ 54] =        64.114040700000;     BAS[ATNO][  8].d[ 54] =         0.038083474310;
  BAS[ATNO][  8].a[ 55] =        31.107038200000;     BAS[ATNO][  8].d[ 55] =         0.051149479892;
  BAS[ATNO][  8].a[ 56] =        15.366235600000;     BAS[ATNO][  8].d[ 56] =        -0.014692886443;
  BAS[ATNO][  8].a[ 57] =         7.391254080000;     BAS[ATNO][  8].d[ 57] =        -0.120095982150;
  BAS[ATNO][  8].a[ 58] =         3.530697220000;     BAS[ATNO][  8].d[ 58] =        -0.216944541885;
  BAS[ATNO][  8].a[ 59] =         1.678108190000;     BAS[ATNO][  8].d[ 59] =        -0.022215601372;
  BAS[ATNO][  8].a[ 60] =         0.683391650000;     BAS[ATNO][  8].d[ 60] =         0.861380244710;
  BAS[ATNO][  8].a[ 61] =         0.276466560000;     BAS[ATNO][  8].d[ 61] =        -0.178352944868;
  BAS[ATNO][  8].a[ 62] =         0.105540690000;     BAS[ATNO][  8].d[ 62] =        -0.654297650319;
  BAS[ATNO][  8].a[ 63] =         0.042216280000;     BAS[ATNO][  8].d[ 63] =        -0.029137777660;

  // Basis function  10 L = d
  InitBFNGauss(BAS[ATNO][  9]);
  BAS[ATNO][  9].l  = 2;
  BAS[ATNO][  9].ng = 22;
  BAS[ATNO][  9].a[  0] =       624.475513000000;     BAS[ATNO][  9].d[  0] =         0.000644421438;
  BAS[ATNO][  9].a[  1] =       265.735250000000;     BAS[ATNO][  9].d[  1] =         0.002247026786;
  BAS[ATNO][  9].a[  2] =       116.709586000000;     BAS[ATNO][  9].d[  2] =         0.013437096830;
  BAS[ATNO][  9].a[  3] =        50.306071000000;     BAS[ATNO][  9].d[  3] =         0.051626246807;
  BAS[ATNO][  9].a[  4] =        23.036081700000;     BAS[ATNO][  9].d[  4] =         0.147560726078;
  BAS[ATNO][  9].a[  5] =        10.586238100000;     BAS[ATNO][  9].d[  5] =         0.299363930235;
  BAS[ATNO][  9].a[  6] =         4.798113940000;     BAS[ATNO][  9].d[  6] =         0.382432374759;
  BAS[ATNO][  9].a[  7] =         2.133543170000;     BAS[ATNO][  9].d[  7] =         0.288651888110;
  BAS[ATNO][  9].a[  8] =         0.857316380000;     BAS[ATNO][  9].d[  8] =         0.082788553858;
  BAS[ATNO][  9].a[  9] =         0.342926550000;     BAS[ATNO][  9].d[  9] =         0.000347121964;
  BAS[ATNO][  9].a[ 10] =         0.137170620000;     BAS[ATNO][  9].d[ 10] =         0.001642112602;
  BAS[ATNO][  9].a[ 11] =       624.475513000000;     BAS[ATNO][  9].d[ 11] =         0.000032929675;
  BAS[ATNO][  9].a[ 12] =       265.735250000000;     BAS[ATNO][  9].d[ 12] =         0.000128667785;
  BAS[ATNO][  9].a[ 13] =       116.709586000000;     BAS[ATNO][  9].d[ 13] =         0.000698209153;
  BAS[ATNO][  9].a[ 14] =        50.306071000000;     BAS[ATNO][  9].d[ 14] =         0.002852890487;
  BAS[ATNO][  9].a[ 15] =        23.036081700000;     BAS[ATNO][  9].d[ 15] =         0.007778464454;
  BAS[ATNO][  9].a[ 16] =        10.586238100000;     BAS[ATNO][  9].d[ 16] =         0.017298931505;
  BAS[ATNO][  9].a[ 17] =         4.798113940000;     BAS[ATNO][  9].d[ 17] =         0.020261971867;
  BAS[ATNO][  9].a[ 18] =         2.133543170000;     BAS[ATNO][  9].d[ 18] =         0.019019041511;
  BAS[ATNO][  9].a[ 19] =         0.857316380000;     BAS[ATNO][  9].d[ 19] =        -0.076047832444;
  BAS[ATNO][  9].a[ 20] =         0.342926550000;     BAS[ATNO][  9].d[ 20] =        -0.104877097479;
  BAS[ATNO][  9].a[ 21] =         0.137170620000;     BAS[ATNO][  9].d[ 21] =        -0.016422114452;

  // Basis function  11 L = d
  InitBFNGauss(BAS[ATNO][ 10]);
  BAS[ATNO][ 10].l  = 2;
  BAS[ATNO][ 10].ng = 22;
  BAS[ATNO][ 10].a[  0] =       624.475513000000;     BAS[ATNO][ 10].d[  0] =         0.000112047918;
  BAS[ATNO][ 10].a[  1] =       265.735250000000;     BAS[ATNO][ 10].d[  1] =         0.000390698785;
  BAS[ATNO][ 10].a[  2] =       116.709586000000;     BAS[ATNO][ 10].d[  2] =         0.002336357290;
  BAS[ATNO][ 10].a[  3] =        50.306071000000;     BAS[ATNO][ 10].d[  3] =         0.008976444808;
  BAS[ATNO][ 10].a[  4] =        23.036081700000;     BAS[ATNO][ 10].d[  4] =         0.025656924440;
  BAS[ATNO][ 10].a[  5] =        10.586238100000;     BAS[ATNO][ 10].d[  5] =         0.052051504098;
  BAS[ATNO][ 10].a[  6] =         4.798113940000;     BAS[ATNO][ 10].d[  6] =         0.066494919099;
  BAS[ATNO][ 10].a[  7] =         2.133543170000;     BAS[ATNO][ 10].d[  7] =         0.050188962061;
  BAS[ATNO][ 10].a[  8] =         0.857316380000;     BAS[ATNO][ 10].d[  8] =         0.014394749384;
  BAS[ATNO][ 10].a[  9] =         0.342926550000;     BAS[ATNO][ 10].d[  9] =         0.000060355368;
  BAS[ATNO][ 10].a[ 10] =         0.137170620000;     BAS[ATNO][ 10].d[ 10] =         0.000285520138;
  BAS[ATNO][ 10].a[ 11] =       624.475513000000;     BAS[ATNO][ 10].d[ 11] =        -0.000189388515;
  BAS[ATNO][ 10].a[ 12] =       265.735250000000;     BAS[ATNO][ 10].d[ 12] =        -0.000740007322;
  BAS[ATNO][ 10].a[ 13] =       116.709586000000;     BAS[ATNO][ 10].d[ 13] =        -0.004015611888;
  BAS[ATNO][ 10].a[ 14] =        50.306071000000;     BAS[ATNO][ 10].d[ 14] =        -0.016407835532;
  BAS[ATNO][ 10].a[ 15] =        23.036081700000;     BAS[ATNO][ 10].d[ 15] =        -0.044736300263;
  BAS[ATNO][ 10].a[ 16] =        10.586238100000;     BAS[ATNO][ 10].d[ 16] =        -0.099491384008;
  BAS[ATNO][ 10].a[ 17] =         4.798113940000;     BAS[ATNO][ 10].d[ 17] =        -0.116532724764;
  BAS[ATNO][ 10].a[ 18] =         2.133543170000;     BAS[ATNO][ 10].d[ 18] =        -0.109384256592;
  BAS[ATNO][ 10].a[ 19] =         0.857316380000;     BAS[ATNO][ 10].d[ 19] =         0.437374071258;
  BAS[ATNO][ 10].a[ 20] =         0.342926550000;     BAS[ATNO][ 10].d[ 20] =         0.603179888657;
  BAS[ATNO][ 10].a[ 21] =         0.137170620000;     BAS[ATNO][ 10].d[ 21] =         0.094448544105;

  // Basis function  12 L = f
  InitBFNGauss(BAS[ATNO][ 11]);
  BAS[ATNO][ 11].l  = 3;
  BAS[ATNO][ 11].ng = 4;
  BAS[ATNO][ 11].a[  0] =         1.688892000000;     BAS[ATNO][ 11].d[  0] =         0.101187760149;
  BAS[ATNO][ 11].a[  1] =         0.675557000000;     BAS[ATNO][ 11].d[  1] =         0.759109881121;
  BAS[ATNO][ 11].a[  2] =         0.270223000000;     BAS[ATNO][ 11].d[  2] =         0.250714540370;
  BAS[ATNO][ 11].a[  3] =         0.108089000000;     BAS[ATNO][ 11].d[  3] =         0.004406980007;

-------
TIMINGS
-------

Total SCF time: 0 days 0 hours 0 min 21 sec 

Total time                  ....      21.968 sec
Sum of individual times     ....      21.611 sec  ( 98.4%)

Fock matrix formation       ....      20.844 sec  ( 94.9%)
  XC integration            ....       0.042 sec  (  0.2% of F)
    Basis function eval.    ....       0.019 sec  ( 44.7% of XC)
    Density eval.           ....       0.001 sec  (  3.5% of XC)
    XC-Functional eval.     ....       0.002 sec  (  5.6% of XC)
    XC-Potential eval.      ....       0.001 sec  (  3.2% of XC)
Diagonalization             ....       0.001 sec  (  0.0%)
Density matrix formation    ....       0.001 sec  (  0.0%)
Population analysis         ....       0.001 sec  (  0.0%)
Initial guess               ....       0.082 sec  (  0.4%)
Orbital Transformation      ....       0.000 sec  (  0.0%)
Orbital Orthonormalization  ....       0.000 sec  (  0.0%)
DIIS solution               ....       0.000 sec  (  0.0%)
SOSCF solution              ....       0.001 sec  (  0.0%)
Grid generation             ....       0.683 sec  (  3.1%)

-------------------------   --------------------
FINAL SINGLE POINT ENERGY     -1250.405932241178
-------------------------   --------------------


                            ***************************************
                            *     ORCA property calculations      *
                            ***************************************

                                    ---------------------
                                    Active property flags
                                    ---------------------
   (+) Dipole Moment


------------------------------------------------------------------------------
                       ORCA ELECTRIC PROPERTIES CALCULATION
------------------------------------------------------------------------------

Dipole Moment Calculation                       ... on
Quadrupole Moment Calculation                   ... off
Polarizability Calculation                      ... off
GBWName                                         ... Kr_ano-rcc-dzp_1096.287912_.gbw
Electron density file                           ... Kr_ano-rcc-dzp_1096.287912_.scfp
The origin for moment calculation is the CENTER OF MASS  = ( 0.000000,  0.000000  0.000000)

-------------
DIPOLE MOMENT
-------------
                                X             Y             Z
Electronic contribution:      0.00000       0.00000      -0.00000
Nuclear contribution   :      0.00000       0.00000       0.00000
                        -----------------------------------------
Total Dipole Moment    :      0.00000       0.00000      -0.00000
                        -----------------------------------------
Magnitude (a.u.)       :      0.00000
Magnitude (Debye)      :      0.00000



--------------------
Rotational spectrum 
--------------------
 
Rotational constants in cm-1:     0.000000     0.000000     0.000000 
Rotational constants in MHz :     0.000000     0.000000     0.000000 

 Dipole components along the rotational axes: 
x,y,z [a.u.] :     0.000000     0.000000    -0.000000 
x,y,z [Debye]:     0.000000     0.000000    -0.000000 

 

Timings for individual modules:

Sum of individual times         ...       23.506 sec (=   0.392 min)
GTO integral calculation        ...        0.751 sec (=   0.013 min)   3.2 %
Relativistic integrals          ...        0.478 sec (=   0.008 min)   2.0 %
SCF iterations                  ...       22.277 sec (=   0.371 min)  94.8 %
                             ****ORCA TERMINATED NORMALLY****
TOTAL RUN TIME: 0 days 0 hours 0 minutes 23 seconds 914 msec
