
                                 *****************
                                 * O   R   C   A *
                                 *****************

           --- An Ab Initio, DFT and Semiempirical electronic structure package ---

                  #######################################################
                  #                        -***-                        #
                  #          Department of theory and spectroscopy      #
                  #               Directorship: Frank Neese             #
                  #        Max Planck Institute fuer Kohlenforschung    #
                  #                Kaiser Wilhelm Platz 1               #
                  #                 D-45470 Muelheim/Ruhr               #
                  #                      Germany                        #
                  #                                                     #
                  #                  All rights reserved                #
                  #                        -***-                        #
                  #######################################################


                         Program Version 4.2.1 -  RELEASE  -


 With contributions from (in alphabetic order):
   Daniel Aravena         : Magnetic Suceptibility
   Michael Atanasov       : Ab Initio Ligand Field Theory (pilot matlab implementation)
   Alexander A. Auer      : GIAO ZORA, VPT2
   Ute Becker             : Parallelization
   Giovanni Bistoni       : ED, misc. LED, open-shell LED, HFLD
   Martin Brehm           : Molecular dynamics
   Dmytro Bykov           : SCF Hessian
   Vijay G. Chilkuri      : MRCI spin determinant printing, contributions to CSF-ICE
   Dipayan Datta          : RHF DLPNO-CCSD density
   Achintya Kumar Dutta   : EOM-CC, STEOM-CC
   Dmitry Ganyushin       : Spin-Orbit,Spin-Spin,Magnetic field MRCI
   Miquel Garcia          : C-PCM Hessian, Gaussian charge scheme
   Yang Guo               : DLPNO-NEVPT2, CIM, IAO-localization
   Andreas Hansen         : Spin unrestricted coupled pair/coupled cluster methods
   Benjamin Helmich-Paris : CASSCF linear response (MC-RPA)
   Lee Huntington         : MR-EOM, pCC
   Robert Izsak           : Overlap fitted RIJCOSX, COSX-SCS-MP3, EOM
   Christian Kollmar      : KDIIS, OOCD, Brueckner-CCSD(T), CCSD density
   Simone Kossmann        : Meta GGA functionals, TD-DFT gradient, OOMP2, MP2 Hessian
   Martin Krupicka        : AUTO-CI
   Lucas Lang             : DCDCAS
   Dagmar Lenk            : GEPOL surface, SMD
   Dimitrios Liakos       : Extrapolation schemes; Compound Job, initial MDCI parallelization
   Dimitrios Manganas     : Further ROCIS development; embedding schemes
   Dimitrios Pantazis     : SARC Basis sets
   Taras Petrenko         : DFT Hessian,TD-DFT gradient, ASA, ECA, R-Raman, ABS, FL, XAS/XES, NRVS
   Peter Pinski           : DLPNO-MP2, DLPNO-MP2 Gradient
   Christoph Reimann      : Effective Core Potentials
   Marius Retegan         : Local ZFS, SOC
   Christoph Riplinger    : Optimizer, TS searches, QM/MM, DLPNO-CCSD(T), (RO)-DLPNO pert. Triples
   Tobias Risthaus        : Range-separated hybrids, TD-DFT gradient, RPA, STAB
   Michael Roemelt        : Original ROCIS implementation
   Masaaki Saitow         : Open-shell DLPNO-CCSD energy and density
   Barbara Sandhoefer     : DKH picture change effects
   Avijit Sen             : IP-ROCIS
   Kantharuban Sivalingam : CASSCF convergence, NEVPT2, FIC-MRCI
   Bernardo de Souza      : ESD, SOC TD-DFT
   Georgi Stoychev        : AutoAux, RI-MP2 NMR
   Willem Van den Heuvel  : Paramagnetic NMR
   Boris Wezisla          : Elementary symmetry handling
   Frank Wennmohs         : Technical directorship


 We gratefully acknowledge several colleagues who have allowed us to
 interface, adapt or use parts of their codes:
   Stefan Grimme, W. Hujo, H. Kruse,             : VdW corrections, initial TS optimization,
                  C. Bannwarth                     DFT functionals, gCP, sTDA/sTD-DF
   Ed Valeev, F. Pavosevic, A. Kumar             : LibInt (2-el integral package), F12 methods
   Garnet Chan, S. Sharma, J. Yang, R. Olivares  : DMRG
   Ulf Ekstrom                                   : XCFun DFT Library
   Mihaly Kallay                                 : mrcc  (arbitrary order and MRCC methods)
   Andreas Klamt, Michael Diedenhofen            : otool_cosmo (COSMO solvation model)
   Jiri Pittner, Ondrej Demel                    : Mk-CCSD
   Frank Weinhold                                : gennbo (NPA and NBO analysis)
   Christopher J. Cramer and Donald G. Truhlar   : smd solvation model
   Lars Goerigk                                  : TD-DFT with DH, B97 family of functionals
   V. Asgeirsson, H. Jonsson                     : NEB implementation
   FAccTs GmbH                                   : IRC, NEB, NEB-TS, Multilevel, MM, QM/MM, CI optimization
   S Lehtola, MJT Oliveira, MAL Marques          : LibXC Library


 Your calculation uses the libint2 library for the computation of 2-el integrals
 For citations please refer to: http://libint.valeyev.net

 Your ORCA version has been built with support for libXC version: 4.2.3
 For citations please refer to: https://tddft.org/programs/libxc/

 This ORCA versions uses:
   CBLAS   interface :  Fast vector & matrix operations
   LAPACKE interface :  Fast linear algebra routines
   SCALAPACK package :  Parallel linear algebra routines


----- Orbital basis set information -----
Your calculation utilizes the basis: ANO-RCC-TZP
   H, He:       P.-O. Widmark, P.-A. Malmqvist, and B. O. Roos, Theor. Chim. Acta 77, 291 (1990).
   s block:     B. O. Roos, V. Veryazov and P.-O. Widmark, Theor. Chem. Acc. 111, 345 (2004).
   p block:     B. O. Roos, R. Lindh, P.-A. Malmqvist, V. Veryazov, and P.-O. Widmark, J. Phys. Chem. A 108, 2851 (2004).
   d block:     B. O. Roos, R. Lindh, P.-A. Malmqvist, V. Veryazov, and P.-O. Widmark, J. Phys. Chem. A 109, 6575 (2005).
   actinides:   B. O. Roos, R. Lindh, P.-A. Malmqvist, V. Veryazov, and P.-O. Widmark, Chem. Phys. Letters 409, 295 (2005).
   lanthanides: B. O. Roos, R. Lindh, P.-A. Malmqvist, V. Veryazov, P.-O. Widmark and A. C. Borin, J. Phys. Chem. A 112, 11431 (2008).

================================================================================
                                        WARNINGS
                       Please study these warnings very carefully!
================================================================================


INFO   : the flag for use of LIBINT has been found!

================================================================================
                                       INPUT FILE
================================================================================
NAME = Kr_ano-rcc-tzp_274.071978_.inp
|  1> ! LDA ano-rcc-tzp nori grid5 finalgrid6 verytightscf
|  2> %Pal NProcs 18 End
|  3> 
|  4> % REL
|  5>   Method ZORA
|  6>   ModelPot 1, 0, 0, 0
|  7>   velit 274.071978
|  8> END
|  9> 
| 10> *xyz 34 1
| 11> Kr 0.0 0.0 0.0
| 12> **                         ****END OF INPUT****
================================================================================

                       ****************************
                       * Single Point Calculation *
                       ****************************

---------------------------------
CARTESIAN COORDINATES (ANGSTROEM)
---------------------------------
  Kr     0.000000    0.000000    0.000000

----------------------------
CARTESIAN COORDINATES (A.U.)
----------------------------
  NO LB      ZA    FRAG     MASS         X           Y           Z
   0 Kr   36.0000    0    83.800    0.000000    0.000000    0.000000

--------------------------------
INTERNAL COORDINATES (ANGSTROEM)
--------------------------------
 Kr     0   0   0     0.000000000000     0.00000000     0.00000000

---------------------------
INTERNAL COORDINATES (A.U.)
---------------------------
 Kr     0   0   0     0.000000000000     0.00000000     0.00000000

---------------------
BASIS SET INFORMATION
---------------------
There are 1 groups of distinct atoms

 Group   1 Type Kr  : 120s85p33d8f2g contracted to 6s5p3d2f1g pattern {202020202020/1717171717/111111/44/2}

Atom   0Kr   basis set group =>   1


           ************************************************************
           *        Program running with 18 parallel MPI-processes    *
           *              working on a common directory               *
           ************************************************************


------------------------------------------------------------------------------
                       ORCA GTO INTEGRAL CALCULATION
                     -- ANO INTEGRAL GENERATION BRANCH --
------------------------------------------------------------------------------


Gathering ANO information                         ... done
Calculation Information:
Number of atoms                                   ... 1
Number of basis functions                         ... 59
Highest angular momentum                          ... 4
Number of primitive shells                        ... 54
Total number of shells                            ... 17
Maximum number of shells                          ... 17

Getting memory                                    ... done
Making prescreening integrals                     ... done
Gathering atom contracted prescreening            ... done
Making one-electron integrals                     ... done

Timings:

Total time                                        ...    0.6 sec
Prescreening matrix                               ...    0.5 sec
One-electron matrix                               ...    0.0 sec
Two-index integrals + Cholesky                    ...    0.0 sec


           ************************************************************
           *        Program running with 18 parallel MPI-processes    *
           *              working on a common directory               *
           ************************************************************
------------------------------------------------------------------------------
                          ORCA RELATIVISTIC HAMILTONIAN
------------------------------------------------------------------------------

Relativistic Method            ... ZORA(MP)
Treatment of potential         ... Van Wuellen
Nucleus model                  ... Point Nucleus
Speed of light used            ... 274.07197800000000


            *************************************************
            *         ZERO ORDER REGULAR APPROXIMATION      *
            *                     ZORA(MP)                  *
            *            Programmed by FN according to      *
            *                   C. van Wuellen              *
            *       J. Chem. Phys. (1998) vol 109, 392-399  *
            *************************************************

Terms included in model potential: +V(e,N)
Basis function cutoff value   ... 1.000000e-12
Loading the fitted atomic densities  (DKH4)  ... done
Calculating the cutoffs                      ... done
Number of fit functions                      ... 27
Setting up the integration grid ... done


           ************************************************************
           *        Program running with 18 parallel MPI-processes    *
           *              working on a common directory               *
           ************************************************************
-------------------------------------------------------------------------------
                                 ORCA SCF
-------------------------------------------------------------------------------

------------
SCF SETTINGS
------------
Hamiltonian:
 Density Functional     Method          .... DFT(GTOs)
 Exchange Functional    Exchange        .... Slater
   X-Alpha parameter    XAlpha          ....  0.666667
 Correlation Functional Correlation     .... VWN-5
 Gradients option       PostSCFGGA      .... off
   Density functional embedding theory  .... OFF

Relativistic Settings:
 Scalar relativistic method             .... ZORA
 Speed of light used       Velit        ....       274.071978
Orbital energies will be scaled


General Settings:
 Integral files         IntName         .... Kr_ano-rcc-tzp_274.071978_
 Hartree-Fock type      HFTyp           .... RHF
 Total Charge           Charge          ....   34
 Multiplicity           Mult            ....    1
 Number of Electrons    NEL             ....    2
 Basis Dimension        Dim             ....   59
 Nuclear Repulsion      ENuc            ....      0.0000000000 Eh

Convergence Acceleration:
 DIIS                   CNVDIIS         .... on
   Start iteration      DIISMaxIt       ....    12
   Startup error        DIISStart       ....  0.200000
   # of expansion vecs  DIISMaxEq       ....     5
   Bias factor          DIISBfac        ....   1.050
   Max. coefficient     DIISMaxC        ....  10.000
 Newton-Raphson         CNVNR           .... off
 SOSCF                  CNVSOSCF        .... on
   Start iteration      SOSCFMaxIt      ....   150
   Startup grad/error   SOSCFStart      ....  0.003300
 Level Shifting         CNVShift        .... on
   Level shift para.    LevelShift      ....    0.2500
   Turn off err/grad.   ShiftErr        ....    0.0010
 Zerner damping         CNVZerner       .... off
 Static damping         CNVDamp         .... on
   Fraction old density DampFac         ....    0.7000
   Max. Damping (<1)    DampMax         ....    0.9800
   Min. Damping (>=0)   DampMin         ....    0.0000
   Turn off err/grad.   DampErr         ....    0.1000
 Fernandez-Rico         CNVRico         .... off

SCF Procedure:
 Maximum # iterations   MaxIter         ....   125
 SCF integral mode      SCFMode         .... Direct
   Integral package                     .... LIBINT
 Reset frequency        DirectResetFreq ....    20
 Integral Threshold     Thresh          ....  1.000e-12 Eh
 Primitive CutOff       TCut            ....  1.000e-14 Eh

Convergence Tolerance:
 Convergence Check Mode ConvCheckMode   .... Total+1el-Energy
 Convergence forced     ConvForced      .... 0
 Energy Change          TolE            ....  1.000e-09 Eh
 1-El. energy change                    ....  1.000e-06 Eh
 Orbital Gradient       TolG            ....  2.000e-06
 Orbital Rotation angle TolX            ....  2.000e-06
 DIIS Error             TolErr          ....  1.000e-08


Diagonalization of the overlap matrix:
Smallest eigenvalue                        ... 1.000e+00
Time for diagonalization                   ...    0.001 sec
Threshold for overlap eigenvalues          ... 1.000e-08
Number of eigenvalues below threshold      ... 0
Time for construction of square roots      ...    0.001 sec
Total time needed                          ...    0.002 sec

-------------------
DFT GRID GENERATION
-------------------

General Integration Accuracy     IntAcc      ...  5.010
Radial Grid Type                 RadialGrid  ... Gauss-Chebyshev
Angular Grid (max. acc.)         AngularGrid ... Lebedev-434
Angular grid pruning method      GridPruning ... 3 (G Style)
Weight generation scheme         WeightScheme... Becke
Basis function cutoff            BFCut       ...    1.0000e-12
Integration weight cutoff        WCut        ...    1.0000e-14
Grids for H and He will be reduced by one unit

# of grid points (after initial pruning)     ...  16106 (   0.0 sec)
# of grid points (after weights+screening)   ...  16106 (   0.0 sec)
Grid point division into batches done        ...    0.2 sec
Reduced shell lists constructed in    0.2 sec

Total number of grid points                  ...    16106
Total number of batches                      ...      252
Average number of points per batch           ...       63
Average number of grid points per atom       ...    16106
Average number of shells per batch           ...    11.87 (69.80%)
Average number of basis functions per batch  ...    37.47 (63.50%)
Average number of large shells per batch     ...     4.40 (37.08%)
Average number of large basis fcns per batch ...    12.40 (33.10%)
Maximum spatial batch extension              ...  17.34, 17.34, 17.34 au
Average spatial batch extension              ...   0.86,  0.87,  0.87 au

Time for grid setup =    0.263 sec

------------------------------
INITIAL GUESS: MODEL POTENTIAL
------------------------------
Loading ZORA relativistic densities                ... done
Calculating cut-offs                               ... done
Setting up the integral package                    ... done
Initializing the effective Hamiltonian             ... done
Starting the Coulomb interaction                   ... done (   0.0 sec)
Reading the grid                                   ... done
Mapping shells                                     ... done
Starting the XC term evaluation                    ... done (   0.0 sec)
  promolecular density results
     # of electrons  =     36.000000565
     EX              =    -91.042004939
     EC              =     -3.295965580
     EX+EC           =    -94.337970520
Transforming the Hamiltonian                       ... done (   0.0 sec)
Diagonalizing the Hamiltonian                      ... done (   0.0 sec)
Back transforming the eigenvectors                 ... done (   0.0 sec)
Now organizing SCF variables                       ... done
                      ------------------
                      INITIAL GUESS DONE (   0.4 sec)
                      ------------------
--------------
SCF ITERATIONS
--------------
ITER       Energy         Delta-E        Max-DP      RMS-DP      [F,P]     Damp
               ***  Starting incremental Fock matrix formation  ***
  0  -1266.7731880734   0.000000000000 0.00425167  0.00007663  6.5719438 0.7000
                      *** Initiating the SOSCF procedure ***
                      *** Re-Reading the Fockian *** 
                      *** Removing any level shift *** 
ITER      Energy       Delta-E        Grad      Rot      Max-DP    RMS-DP
  1  -1266.78956937  -0.0163812922  0.003202  0.003202  0.009907  0.000179
               *** Restarting incremental Fock matrix formation ***
  2  -1266.82760050  -0.0380311377  0.011591  0.000025  0.000049  0.000001
  3  -1266.82760116  -0.0000006527  0.000056  0.000000  0.000000  0.000000
                 **** Energy Check signals convergence ****
              ***Rediagonalizing the Fockian in SOSCF/NRSCF***

               *****************************************************
               *                     SUCCESS                       *
               *           SCF CONVERGED AFTER   4 CYCLES          *
               *****************************************************

Setting up the final grid:

General Integration Accuracy     IntAcc      ...  5.340
Radial Grid Type                 RadialGrid  ... Gauss-Chebyshev
Angular Grid (max. acc.)         AngularGrid ... Lebedev-590
Angular grid pruning method      GridPruning ... 3 (G Style)
Weight generation scheme         WeightScheme... Becke
Basis function cutoff            BFCut       ...    1.0000e-12
Integration weight cutoff        WCut        ...    1.0000e-14
Grids for H and He will be reduced by one unit

# of grid points (after initial pruning)     ...  24180 (   0.0 sec)
# of grid points (after weights+screening)   ...  24180 (   0.0 sec)
Grid point division into batches done        ...    0.4 sec
Reduced shell lists constructed in    0.4 sec

Total number of grid points                  ...    24180
Total number of batches                      ...      378
Average number of points per batch           ...       63
Average number of grid points per atom       ...    24180
Average number of shells per batch           ...     7.77 (45.72%)
Average number of basis functions per batch  ...    23.86 (40.45%)
Average number of large shells per batch     ...     3.55 (45.61%)
Average number of large basis fcns per batch ...     9.82 (41.14%)
Maximum spatial batch extension              ...  17.58, 17.58, 17.58 au
Average spatial batch extension              ...   0.77,  0.77,  0.77 au

Final grid set up in    0.4 sec
Final integration                            ... done (   0.0 sec)
Change in XC energy                          ...    -0.000015076
Integrated number of electrons               ...     2.000000075
Previous integrated no of electrons          ...     1.999999427

----------------
TOTAL SCF ENERGY
----------------

Total Energy       :        -1266.82761623 Eh          -34472.13197 eV

Components:
Nuclear Repulsion  :            0.00000000 Eh               0.00000 eV
Electronic Energy  :        -1266.82761623 Eh          -34472.13197 eV
One Electron Energy:        -1292.61293626 Eh          -35173.78620 eV
Two Electron Energy:           25.78532002 Eh             701.65423 eV

Virial components:
Potential Energy   :        -2682.78113243 Eh          -73002.18597 eV
Kinetic Energy     :         1415.95351620 Eh           38530.05401 eV
Virial Ratio       :            1.89468164


DFT components:
N(Alpha)           :        1.000000037657 electrons
N(Beta)            :        1.000000037657 electrons
N(Total)           :        2.000000075315 electrons
E(X)               :      -19.692764711472 Eh       
E(C)               :       -0.279235341418 Eh       
E(XC)              :      -19.972000052889 Eh       
DFET-embed. en.    :        0.000000000000 Eh       

---------------
SCF CONVERGENCE
---------------

  Last Energy change         ...   -1.5007e-11  Tolerance :   1.0000e-09
  Last MAX-Density change    ...    0.0000e+00  Tolerance :   1.0000e-08
  Last RMS-Density change    ...    0.0000e+00  Tolerance :   1.0000e-09
  Last Orbital Gradient      ...    3.8787e-11  Tolerance :   2.0000e-06
  Last Orbital Rotation      ...    0.0000e+00  Tolerance :   2.0000e-06

================================================================================
                                        WARNING
Number of found core electrons (2) does not match given number of chemical core electrons (18)
================================================================================
             **** THE GBW FILE WAS UPDATED (Kr_ano-rcc-tzp_274.071978_.gbw) ****
             **** DENSITY FILE WAS UPDATED (Kr_ano-rcc-tzp_274.071978_.scfp) ****
             **** ENERGY FILE WAS UPDATED (Kr_ano-rcc-tzp_274.071978_.en.tmp) ****
             **** THE GBW FILE WAS UPDATED (Kr_ano-rcc-tzp_274.071978_.gbw) ****
             **** DENSITY FILE WAS UPDATED (Kr_ano-rcc-tzp_274.071978_.scfp) ****
----------------
ORBITAL ENERGIES
----------------

  NO   OCC          E(Eh)            E(eV) 
   0   2.0000    -613.827107    -16703.0847 
   1   0.0000    -148.720580     -4046.8927 
   2   0.0000    -147.049560     -4001.4219 
   3   0.0000    -147.049560     -4001.4219 
   4   0.0000    -147.049560     -4001.4219 
   5   0.0000     -62.314233     -1695.6565 
   6   0.0000     -59.783632     -1626.7953 
   7   0.0000     -59.783632     -1626.7953 
   8   0.0000     -59.783632     -1626.7953 
   9   0.0000     -55.922244     -1521.7216 
  10   0.0000     -55.922244     -1521.7216 
  11   0.0000     -55.922244     -1521.7216 
  12   0.0000     -55.922244     -1521.7216 
  13   0.0000     -55.922244     -1521.7216 
  14   0.0000     -30.275447      -823.8368 
  15   0.0000     -27.245334      -741.3832 
  16   0.0000     -27.245334      -741.3832 
  17   0.0000     -27.245334      -741.3832 
  18   0.0000     -22.378481      -608.9494 
  19   0.0000     -22.378481      -608.9494 
  20   0.0000     -22.378481      -608.9494 
  21   0.0000     -22.378481      -608.9494 
  22   0.0000     -22.378481      -608.9494 
  23   0.0000     -20.212520      -550.0106 
  24   0.0000     -20.212520      -550.0106 
  25   0.0000     -20.212520      -550.0106 
  26   0.0000     -20.212520      -550.0106 
  27   0.0000     -20.212520      -550.0106 
  28   0.0000     -20.212520      -550.0106 
  29   0.0000     -20.212520      -550.0106 
  30   0.0000     -17.064265      -464.3423 
  31   0.0000     -14.793587      -402.5540 
  32   0.0000     -14.793587      -402.5540 
  33   0.0000     -14.793587      -402.5540 
  34   0.0000     -14.748562      -401.3288 
  35   0.0000     -14.748562      -401.3288 
  36   0.0000     -14.748562      -401.3288 
  37   0.0000     -14.748562      -401.3288 
  38   0.0000     -14.748562      -401.3288 
  39   0.0000     -14.748562      -401.3288 
  40   0.0000     -14.748562      -401.3288 
  41   0.0000     -14.748562      -401.3288 
  42   0.0000     -14.748562      -401.3288 
  43   0.0000     -12.050447      -327.9093 
  44   0.0000     -12.050447      -327.9093 
  45   0.0000     -12.050447      -327.9093 
  46   0.0000     -12.050447      -327.9093 
  47   0.0000     -12.050447      -327.9093 
  48   0.0000     -11.773322      -320.3684 
  49   0.0000     -11.773322      -320.3684 
  50   0.0000     -11.773322      -320.3684 
  51   0.0000     -11.773322      -320.3684 
  52   0.0000     -11.773322      -320.3684 
  53   0.0000     -11.773322      -320.3684 
  54   0.0000     -11.773322      -320.3684 
  55   0.0000     -10.289944      -280.0036 
  56   0.0000      -8.571084      -233.2311 
  57   0.0000      -8.571084      -233.2311 
  58   0.0000      -8.571084      -233.2311 

                    ********************************
                    * MULLIKEN POPULATION ANALYSIS *
                    ********************************

-----------------------
MULLIKEN ATOMIC CHARGES
-----------------------
   0 Kr:   34.000000
Sum of atomic charges:   34.0000000

--------------------------------
MULLIKEN REDUCED ORBITAL CHARGES
--------------------------------
  0 Krs       :     2.000000  s :     2.000000
      pz      :     0.000000  p :     0.000000
      px      :     0.000000
      py      :     0.000000
      dz2     :     0.000000  d :     0.000000
      dxz     :     0.000000
      dyz     :     0.000000
      dx2y2   :     0.000000
      dxy     :     0.000000
      f0      :     0.000000  f :     0.000000
      f+1     :     0.000000
      f-1     :     0.000000
      f+2     :     0.000000
      f-2     :     0.000000
      f+3     :     0.000000
      f-3     :     0.000000
      g0      :     0.000000  g :     0.000000
      g+1     :     0.000000
      g-1     :     0.000000
      g+2     :     0.000000
      g-2     :     0.000000
      g+3     :     0.000000
      g-3     :     0.000000
      g+4     :     0.000000
      g-4     :     0.000000


                     *******************************
                     * LOEWDIN POPULATION ANALYSIS *
                     *******************************

----------------------
LOEWDIN ATOMIC CHARGES
----------------------
   0 Kr:   34.000000

-------------------------------
LOEWDIN REDUCED ORBITAL CHARGES
-------------------------------
  0 Krs       :     2.000000  s :     2.000000
      pz      :     0.000000  p :     0.000000
      px      :     0.000000
      py      :     0.000000
      dz2     :     0.000000  d :     0.000000
      dxz     :     0.000000
      dyz     :     0.000000
      dx2y2   :     0.000000
      dxy     :     0.000000
      f0      :     0.000000  f :     0.000000
      f+1     :     0.000000
      f-1     :     0.000000
      f+2     :     0.000000
      f-2     :     0.000000
      f+3     :     0.000000
      f-3     :     0.000000
      g0      :     0.000000  g :     0.000000
      g+1     :     0.000000
      g-1     :     0.000000
      g+2     :     0.000000
      g-2     :     0.000000
      g+3     :     0.000000
      g-3     :     0.000000
      g+4     :     0.000000
      g-4     :     0.000000


                      *****************************
                      * MAYER POPULATION ANALYSIS *
                      *****************************

  NA   - Mulliken gross atomic population
  ZA   - Total nuclear charge
  QA   - Mulliken gross atomic charge
  VA   - Mayer's total valence
  BVA  - Mayer's bonded valence
  FA   - Mayer's free valence

  ATOM       NA         ZA         QA         VA         BVA        FA
  0 Kr     2.0000    36.0000    34.0000    -0.0000     0.0000    -0.0000

  Mayer bond orders larger than 0.100000


--------------------------
ATOM BASIS FOR ELEMENT Kr
--------------------------
 NewGTO Kr
 S 118
    1   18535881.300000000745         0.000137354770
    2    2419299.990000000224         0.000443203123
    3     474949.065000000002         0.001295330675
    4     117392.346000000005         0.003459008285
    5      34065.440100000000         0.008981288002
    6      11133.885300000000         0.023269183935
    7       3988.280760000000         0.059852420886
    8       1534.678610000000         0.144128681739
    9        624.475513000000         0.287675145649
   10        265.735250000000         0.382495005014
   11        116.709586000000         0.227403450728
   12         50.306071000000         0.027104347896
   13         23.036081700000         0.000594207373
   14         10.586238100000        -0.000552268970
   15          4.798113940000         0.000380665505
   16          2.133543170000        -0.000271709654
   17          0.857316380000         0.000151524230
   18          0.378404470000        -0.000084026800
   19          0.152386050000         0.000035798637
   20          0.060954420000        -0.000009809626
   21   18535881.300000000745        -0.000000343956
   22    2419299.990000000224        -0.000001111041
   23     474949.065000000002        -0.000003253488
   24     117392.346000000005        -0.000008719558
   25      34065.440100000000        -0.000022799443
   26      11133.885300000000        -0.000059836652
   27       3988.280760000000        -0.000158138709
   28       1534.678610000000        -0.000403093203
   29        624.475513000000        -0.000913843486
   30        265.735250000000        -0.001581445017
   31        116.709586000000        -0.001265223754
   32         50.306071000000         0.002130740958
   33         23.036081700000         0.005023487436
   34         10.586238100000         0.001946059685
   35          4.798113940000         0.000079632097
   36          2.133543170000         0.000021790283
   37          0.857316380000        -0.000007144836
   38          0.378404470000         0.000003308716
   39          0.152386050000        -0.000001538418
   40   18535881.300000000745        -0.000000060102
   41    2419299.990000000224        -0.000000194149
   42     474949.065000000002        -0.000000568737
   43     117392.346000000005        -0.000001524933
   44      34065.440100000000        -0.000003991180
   45      11133.885300000000        -0.000010491915
   46       3988.280760000000        -0.000027828416
   47       1534.678610000000        -0.000071476611
   48        624.475513000000        -0.000164879203
   49        265.735250000000        -0.000296434894
   50        116.709586000000        -0.000253619340
   51         50.306071000000         0.000529128595
   52         23.036081700000         0.001787822855
   53         10.586238100000         0.000719299977
   54          4.798113940000        -0.002335691273
   55          2.133543170000        -0.001987939002
   56          0.857316380000        -0.000108247237
   57          0.378404470000        -0.000020083713
   58          0.152386050000         0.000008305729
   59          0.060954420000        -0.000002770040
   60   18535881.300000000745        -0.000000006276
   61    2419299.990000000224        -0.000000020271
   62     474949.065000000002        -0.000000059368
   63     117392.346000000005        -0.000000159180
   64      34065.440100000000        -0.000000416706
   65      11133.885300000000        -0.000001095671
   66       3988.280760000000        -0.000002907831
   67       1534.678610000000        -0.000007477491
   68        624.475513000000        -0.000017296481
   69        265.735250000000        -0.000031283343
   70        116.709586000000        -0.000027078274
   71         50.306071000000         0.000058445913
   72         23.036081700000         0.000209480751
   73         10.586238100000         0.000087092881
   74          4.798113940000        -0.000362176798
   75          2.133543170000        -0.000564726509
   76          0.857316380000         0.000231353471
   77          0.378404470000         0.000847776835
   78          0.152386050000         0.000320430677
   79   18535881.300000000745        -0.000000008272
   80    2419299.990000000224        -0.000000026737
   81     474949.065000000002        -0.000000078152
   82     117392.346000000005        -0.000000210627
   83      34065.440100000000        -0.000000545918
   84      11133.885300000000        -0.000001460464
   85       3988.280760000000        -0.000003776260
   86       1534.678610000000        -0.000010078719
   87        624.475513000000        -0.000022181337
   88        265.735250000000        -0.000043465233
   89        116.709586000000        -0.000030472186
   90         50.306071000000         0.000064636716
   91         23.036081700000         0.000326903000
   92         10.586238100000         0.000018230282
   93          4.798113940000        -0.000371379009
   94          2.133543170000        -0.001360855184
   95          0.857316380000         0.002282675288
   96          0.378404470000         0.000468297903
   97          0.152386050000        -0.001682742555
   98          0.060954420000        -0.000038791632
   99   18535881.300000000745        -0.000000013366
  100    2419299.990000000224        -0.000000043108
  101     474949.065000000002        -0.000000126948
  102     117392.346000000005        -0.000000336533
  103      34065.440100000000        -0.000000900910
  104      11133.885300000000        -0.000002280930
  105       3988.280760000000        -0.000006413614
  106       1534.678610000000        -0.000015245811
  107        624.475513000000        -0.000039410543
  108        265.735250000000        -0.000060797716
  109        116.709586000000        -0.000076258782
  110         50.306071000000         0.000186614186
  111         23.036081700000         0.000375069957
  112         10.586238100000         0.000398847763
  113          4.798113940000        -0.001733411521
  114          2.133543170000        -0.000919003552
  115          0.857316380000         0.006373838226
  116          0.378404470000        -0.007117349573
  117          0.152386050000         0.002398492858
  118          0.060954420000         0.000711483996
 S 118
    1   18535881.300000000745         0.000001094693
    2    2419299.990000000224         0.000003532250
    3     474949.065000000002         0.000010323554
    4     117392.346000000005         0.000027567679
    5      34065.440100000000         0.000071579263
    6      11133.885300000000         0.000185451244
    7       3988.280760000000         0.000477013114
    8       1534.678610000000         0.001148679875
    9        624.475513000000         0.002292719578
   10        265.735250000000         0.003048416937
   11        116.709586000000         0.001812364924
   12         50.306071000000         0.000216016816
   13         23.036081700000         0.000004735727
   14         10.586238100000        -0.000004401485
   15          4.798113940000         0.000003033836
   16          2.133543170000        -0.000002165477
   17          0.857316380000         0.000001207621
   18          0.378404470000        -0.000000669679
   19   18535881.300000000745         0.000044432296
   20    2419299.990000000224         0.000143524397
   21     474949.065000000002         0.000420285812
   22     117392.346000000005         0.001126393115
   23      34065.440100000000         0.002945233572
   24      11133.885300000000         0.007729702753
   25       3988.280760000000         0.020428368993
   26       1534.678610000000         0.052071607024
   27        624.475513000000         0.118050362893
   28        265.735250000000         0.204291173471
   29        116.709586000000         0.163441689534
   30         50.306071000000        -0.275249260029
   31         23.036081700000        -0.648934444164
   32         10.586238100000        -0.251392120738
   33          4.798113940000        -0.010286879643
   34          2.133543170000        -0.002814870235
   35          0.857316380000         0.000922970432
   36          0.378404470000        -0.000427420124
   37          0.152386050000         0.000198732996
   38          0.060954420000        -0.000051826037
   39   18535881.300000000745         0.000001077896
   40    2419299.990000000224         0.000003481969
   41     474949.065000000002         0.000010200030
   42     117392.346000000005         0.000027348970
   43      34065.440100000000         0.000071579961
   44      11133.885300000000         0.000188167623
   45       3988.280760000000         0.000499089696
   46       1534.678610000000         0.001281899782
   47        624.475513000000         0.002957031860
   48        265.735250000000         0.005316422026
   49        116.709586000000         0.004548544972
   50         50.306071000000        -0.009489675381
   51         23.036081700000        -0.032063771803
   52         10.586238100000        -0.012900310706
   53          4.798113940000         0.041889537188
   54          2.133543170000         0.035652761873
   55          0.857316380000         0.001941363868
   56          0.378404470000         0.000360192061
   57          0.152386050000        -0.000148959397
   58          0.060954420000         0.000049679383
   59   18535881.300000000745         0.000000083636
   60    2419299.990000000224         0.000000270151
   61     474949.065000000002         0.000000791209
   62     117392.346000000005         0.000002121419
   63      34065.440100000000         0.000005553515
   64      11133.885300000000         0.000014602213
   65       3988.280760000000         0.000038753200
   66       1534.678610000000         0.000099653898
   67        624.475513000000         0.000230513396
   68        265.735250000000         0.000416918893
   69        116.709586000000         0.000360877159
   70         50.306071000000        -0.000778919488
   71         23.036081700000        -0.002791788677
   72         10.586238100000        -0.001160702924
   73          4.798113940000         0.004826797115
   74          2.133543170000         0.007526214552
   75          0.857316380000        -0.003083290458
   76          0.378404470000        -0.011298478543
   77          0.152386050000        -0.004270438848
   78          0.060954420000         0.000013238143
   79   18535881.300000000745         0.000000100049
   80    2419299.990000000224         0.000000323385
   81     474949.065000000002         0.000000945256
   82     117392.346000000005         0.000002547544
   83      34065.440100000000         0.000006602912
   84      11133.885300000000         0.000017664403
   85       3988.280760000000         0.000045674113
   86       1534.678610000000         0.000121902763
   87        624.475513000000         0.000268284708
   88        265.735250000000         0.000525714813
   89        116.709586000000         0.000368563072
   90         50.306071000000        -0.000781785282
   91         23.036081700000        -0.003953913009
   92         10.586238100000        -0.000220496445
   93          4.798113940000         0.004491853229
   94          2.133543170000         0.016459631795
   95          0.857316380000        -0.027609105798
   96          0.378404470000        -0.005664093534
   97          0.152386050000         0.020352880440
   98          0.060954420000         0.000469187304
   99   18535881.300000000745         0.000000138371
  100    2419299.990000000224         0.000000446263
  101     474949.065000000002         0.000001314196
  102     117392.346000000005         0.000003483865
  103      34065.440100000000         0.000009326431
  104      11133.885300000000         0.000023612738
  105       3988.280760000000         0.000066395261
  106       1534.678610000000         0.000157828284
  107        624.475513000000         0.000407987363
  108        265.735250000000         0.000629392502
  109        116.709586000000         0.000789449149
  110         50.306071000000        -0.001931874687
  111         23.036081700000        -0.003882813906
  112         10.586238100000        -0.004128967441
  113          4.798113940000         0.017944690682
  114          2.133543170000         0.009513744584
  115          0.857316380000        -0.065983497872
  116          0.378404470000         0.073680505176
  117          0.152386050000        -0.024829771757
  118          0.060954420000        -0.007365452505
 S 117
    1   18535881.300000000745         0.000000455050
    2    2419299.990000000224         0.000001468312
    3     474949.065000000002         0.000004291372
    4     117392.346000000005         0.000011459538
    5      34065.440100000000         0.000029754602
    6      11133.885300000000         0.000077089756
    7       3988.280760000000         0.000198288369
    8       1534.678610000000         0.000477491816
    9        624.475513000000         0.000953054772
   10        265.735250000000         0.001267188685
   11        116.709586000000         0.000753377367
   12         50.306071000000         0.000089795481
   13         23.036081700000         0.000001968582
   14         10.586238100000        -0.000001829642
   15          4.798113940000         0.000001261128
   16          2.133543170000        -0.000000900162
   17          0.857316380000         0.000000501993
   18   18535881.300000000745        -0.000002893540
   19    2419299.990000000224        -0.000009346662
   20     474949.065000000002        -0.000027370046
   21     117392.346000000005        -0.000073353490
   22      34065.440100000000        -0.000191800854
   23      11133.885300000000        -0.000503377255
   24       3988.280760000000        -0.001330345635
   25       1534.678610000000        -0.003391031125
   26        624.475513000000        -0.007687729990
   27        265.735250000000        -0.013303943694
   28        116.709586000000        -0.010643724826
   29         50.306071000000         0.017924908820
   30         23.036081700000         0.042260207133
   31         10.586238100000         0.016371273230
   32          4.798113940000         0.000669906904
   33          2.133543170000         0.000183311273
   34          0.857316380000        -0.000060106105
   35          0.378404470000         0.000027834650
   36          0.152386050000        -0.000012941981
   37          0.060954420000         0.000003375039
   38   18535881.300000000745         0.000017261384
   39    2419299.990000000224         0.000055760144
   40     474949.065000000002         0.000163342948
   41     117392.346000000005         0.000437965506
   42      34065.440100000000         0.001146279139
   43      11133.885300000000         0.003013310120
   44       3988.280760000000         0.007992405979
   45       1534.678610000000         0.020528300948
   46        624.475513000000         0.047353810942
   47        265.735250000000         0.085137007449
   48        116.709586000000         0.072840249559
   49         50.306071000000        -0.151967349408
   50         23.036081700000        -0.513468186979
   51         10.586238100000        -0.206585151318
   52          4.798113940000         0.670817670645
   53          2.133543170000         0.570942155911
   54          0.857316380000         0.031088937117
   55          0.378404470000         0.005768103815
   56          0.152386050000        -0.002385430879
   57          0.060954420000         0.000795564010
   58   18535881.300000000745         0.000000932162
   59    2419299.990000000224         0.000003010979
   60     474949.065000000002         0.000008818442
   61     117392.346000000005         0.000023644327
   62      34065.440100000000         0.000061896818
   63      11133.885300000000         0.000162749281
   64       3988.280760000000         0.000431924641
   65       1534.678610000000         0.001110694697
   66        624.475513000000         0.002569192098
   67        265.735250000000         0.004646778637
   68        116.709586000000         0.004022164265
   69         50.306071000000        -0.008681464186
   70         23.036081700000        -0.031115941739
   71         10.586238100000        -0.012936639814
   72          4.798113940000         0.053797172780
   73          2.133543170000         0.083883588839
   74          0.857316380000        -0.034364881211
   75          0.378404470000        -0.125927439629
   76          0.152386050000        -0.047596269544
   77          0.060954420000         0.000147546016
   78   18535881.300000000745         0.000001010995
   79    2419299.990000000224         0.000003267817
   80     474949.065000000002         0.000009551846
   81     117392.346000000005         0.000025743019
   82      34065.440100000000         0.000066722636
   83      11133.885300000000         0.000178499368
   84       3988.280760000000         0.000461538389
   85       1534.678610000000         0.001231831371
   86        624.475513000000         0.002711025678
   87        265.735250000000         0.005312365234
   88        116.709586000000         0.003724341788
   89         50.306071000000        -0.007899965623
   90         23.036081700000        -0.039954419155
   91         10.586238100000        -0.002228123724
   92          4.798113940000         0.045390322518
   93          2.133543170000         0.166325112949
   94          0.857316380000        -0.278990909244
   95          0.378404470000        -0.057235848802
   96          0.152386050000         0.205666516739
   97          0.060954420000         0.004741152922
   98   18535881.300000000745         0.000001184461
   99    2419299.990000000224         0.000003820026
  100     474949.065000000002         0.000011249571
  101     117392.346000000005         0.000029822028
  102      34065.440100000000         0.000079834621
  103      11133.885300000000         0.000202125985
  104       3988.280760000000         0.000568346098
  105       1534.678610000000         0.001351016442
  106        624.475513000000         0.003492388189
  107        265.735250000000         0.005387625058
  108        116.709586000000         0.006757716371
  109         50.306071000000        -0.016536924798
  110         23.036081700000        -0.033237042749
  111         10.586238100000        -0.035344126883
  112          4.798113940000         0.153607271877
  113          2.133543170000         0.081438035168
  114          0.857316380000        -0.564821387939
  115          0.378404470000         0.630708079132
  116          0.152386050000        -0.212543841994
  117          0.060954420000        -0.063048568820
 S 116
    1   18535881.300000000745        -0.000000156987
    2    2419299.990000000224        -0.000000506549
    3     474949.065000000002        -0.000001480469
    4     117392.346000000005        -0.000003953397
    5      34065.440100000000        -0.000010264964
    6      11133.885300000000        -0.000026594998
    7       3988.280760000000        -0.000068406997
    8       1534.678610000000        -0.000164728681
    9        624.475513000000        -0.000328791930
   10        265.735250000000        -0.000437164186
   11        116.709586000000        -0.000259905732
   12         50.306071000000        -0.000030978314
   13         23.036081700000        -0.000000679136
   14         10.586238100000         0.000000631204
   15          4.798113940000        -0.000000435073
   16          2.133543170000         0.000000310545
   17          0.857316380000        -0.000000173181
   18   18535881.300000000745         0.000000413368
   19    2419299.990000000224         0.000001335254
   20     474949.065000000002         0.000003910056
   21     117392.346000000005         0.000010479204
   22      34065.440100000000         0.000027400472
   23      11133.885300000000         0.000071911954
   24       3988.280760000000         0.000190051802
   25       1534.678610000000         0.000484439201
   26        624.475513000000         0.001098261159
   27        265.735250000000         0.001900587642
   28        116.709586000000         0.001520551525
   29         50.306071000000        -0.002560733943
   30         23.036081700000        -0.006037249502
   31         10.586238100000        -0.002338783169
   32          4.798113940000        -0.000095702208
   33          2.133543170000        -0.000026187659
   34          0.857316380000         0.000008586696
   35          0.378404470000        -0.000003976429
   36          0.152386050000         0.000001848878
   37   18535881.300000000745         0.000004701202
   38    2419299.990000000224         0.000015186480
   39     474949.065000000002         0.000044487053
   40     117392.346000000005         0.000119281518
   41      34065.440100000000         0.000312193344
   42      11133.885300000000         0.000820686107
   43       3988.280760000000         0.002176761198
   44       1534.678610000000         0.005590958353
   45        624.475513000000         0.012896984777
   46        265.735250000000         0.023187377472
   47        116.709586000000         0.019838310181
   48         50.306071000000        -0.041388867188
   49         23.036081700000        -0.139844951425
   50         10.586238100000        -0.056264226653
   51          4.798113940000         0.182699662697
   52          2.133543170000         0.155498198496
   53          0.857316380000         0.008467186500
   54          0.378404470000         0.001570964314
   55          0.152386050000        -0.000649680884
   56          0.060954420000         0.000216674787
   57   18535881.300000000745        -0.000003782825
   58    2419299.990000000224        -0.000012218916
   59     474949.065000000002        -0.000035786307
   60     117392.346000000005        -0.000095951544
   61      34065.440100000000        -0.000251184795
   62      11133.885300000000        -0.000660456320
   63       3988.280760000000        -0.001752802577
   64       1534.678610000000        -0.004507333782
   65        624.475513000000        -0.010426093119
   66        265.735250000000        -0.018857191256
   67        116.709586000000        -0.016322430385
   68         50.306071000000         0.035230434532
   69         23.036081700000         0.126272265232
   70         10.586238100000         0.052498453284
   71          4.798113940000        -0.218315451511
   72          2.133543170000        -0.340409776675
   73          0.857316380000         0.139456855631
   74          0.378404470000         0.511028822141
   75          0.152386050000         0.193151434154
   76          0.060954420000        -0.000598759628
   77   18535881.300000000745        -0.000003751220
   78    2419299.990000000224        -0.000012124983
   79     474949.065000000002        -0.000035441388
   80     117392.346000000005        -0.000095517482
   81      34065.440100000000        -0.000247569182
   82      11133.885300000000        -0.000662308101
   83       3988.280760000000        -0.001712502500
   84       1534.678610000000        -0.004570615038
   85        624.475513000000        -0.010059051118
   86        265.735250000000        -0.019711120363
   87        116.709586000000        -0.013818882177
   88         50.306071000000         0.029312211494
   89         23.036081700000         0.148247782359
   90         10.586238100000         0.008267280763
   91          4.798113940000        -0.168417281396
   92          2.133543170000        -0.617136468680
   93          0.857316380000         1.035174192714
   94          0.378404470000         0.212369190588
   95          0.152386050000        -0.763109704938
   96          0.060954420000        -0.017591681253
   97   18535881.300000000745        -0.000003607672
   98    2419299.990000000224        -0.000011635170
   99     474949.065000000002        -0.000034264336
  100     117392.346000000005        -0.000090832976
  101      34065.440100000000        -0.000243163082
  102      11133.885300000000        -0.000615642400
  103       3988.280760000000        -0.001731088439
  104       1534.678610000000        -0.004114973170
  105        624.475513000000        -0.010637238195
  106        265.735250000000        -0.016409816996
  107        116.709586000000        -0.020582889075
  108         50.306071000000         0.050368744424
  109         23.036081700000         0.101234548263
  110         10.586238100000         0.107652378876
  111          4.798113940000        -0.467862405686
  112          2.133543170000        -0.248046818245
  113          0.857316380000         1.720352754886
  114          0.378404470000        -1.921032745280
  115          0.152386050000         0.647373474018
  116          0.060954420000         0.192035537920
 S 115
    1   18535881.300000000745        -0.000000071414
    2    2419299.990000000224        -0.000000230433
    3     474949.065000000002        -0.000000673477
    4     117392.346000000005        -0.000001798430
    5      34065.440100000000        -0.000004669609
    6      11133.885300000000        -0.000012098264
    7       3988.280760000000        -0.000031118855
    8       1534.678610000000        -0.000074936311
    9        624.475513000000        -0.000149569911
   10        265.735250000000        -0.000198869261
   11        116.709586000000        -0.000118233064
   12         50.306071000000        -0.000014092267
   13         23.036081700000        -0.000000308944
   14         10.586238100000         0.000000287139
   15          4.798113940000        -0.000000197918
   16          2.133543170000         0.000000141269
   17   18535881.300000000745         0.000000155064
   18    2419299.990000000224         0.000000500884
   19     474949.065000000002         0.000001466749
   20     117392.346000000005         0.000003930981
   21      34065.440100000000         0.000010278524
   22      11133.885300000000         0.000026975767
   23       3988.280760000000         0.000071292640
   24       1534.678610000000         0.000181723872
   25        624.475513000000         0.000411982082
   26        265.735250000000         0.000712952514
   27        116.709586000000         0.000570392550
   28         50.306071000000        -0.000960588011
   29         23.036081700000        -0.002264705986
   30         10.586238100000        -0.000877329360
   31          4.798113940000        -0.000035900018
   32          2.133543170000        -0.000009823571
   33          0.857316380000         0.000003221060
   34          0.378404470000        -0.000001491647
   35          0.152386050000         0.000000693555
   36   18535881.300000000745         0.000000457587
   37    2419299.990000000224         0.000001478160
   38     474949.065000000002         0.000004330102
   39     117392.346000000005         0.000011610144
   40      34065.440100000000         0.000030387018
   41      11133.885300000000         0.000079880638
   42       3988.280760000000         0.000211872811
   43       1534.678610000000         0.000544190177
   44        624.475513000000         0.001255314739
   45        265.735250000000         0.002256919520
   46        116.709586000000         0.001930941502
   47         50.306071000000        -0.004028542787
   48         23.036081700000        -0.013611664407
   49         10.586238100000        -0.005476420589
   50          4.798113940000         0.017782883619
   51          2.133543170000         0.015135257099
   52          0.857316380000         0.000824144883
   53          0.378404470000         0.000152908194
   54          0.152386050000        -0.000063236020
   55          0.060954420000         0.000021089817
   56   18535881.300000000745         0.000004101071
   57    2419299.990000000224         0.000013246884
   58     474949.065000000002         0.000038796980
   59     117392.346000000005         0.000104023870
   60      34065.440100000000         0.000272316767
   61      11133.885300000000         0.000716019974
   62       3988.280760000000         0.001900264434
   63       1534.678610000000         0.004886532110
   64        624.475513000000         0.011303231862
   65        265.735250000000         0.020443631434
   66        116.709586000000         0.017695623191
   67         50.306071000000        -0.038194342363
   68         23.036081700000        -0.136895448305
   69         10.586238100000        -0.056915105502
   70          4.798113940000         0.236682153058
   71          2.133543170000         0.369048174591
   72          0.857316380000        -0.151189247581
   73          0.378404470000        -0.554021261718
   74          0.152386050000        -0.209401107366
   75          0.060954420000         0.000649132789
   76   18535881.300000000745        -0.000002287870
   77    2419299.990000000224        -0.000007395032
   78     474949.065000000002        -0.000021615715
   79     117392.346000000005        -0.000058256148
   80      34065.440100000000        -0.000150992536
   81      11133.885300000000        -0.000403941958
   82       3988.280760000000        -0.001044455913
   83       1534.678610000000        -0.002787619815
   84        624.475513000000        -0.006135019026
   85        265.735250000000        -0.012021819657
   86        116.709586000000        -0.008428141391
   87         50.306071000000         0.017877528717
   88         23.036081700000         0.090416377724
   89         10.586238100000         0.005042217619
   90          4.798113940000        -0.102717762705
   91          2.133543170000        -0.376391762300
   92          0.857316380000         0.631353126022
   93          0.378404470000         0.129524048505
   94          0.152386050000        -0.465420893509
   95          0.060954420000        -0.010729172954
   96   18535881.300000000745        -0.000005181001
   97    2419299.990000000224        -0.000016709344
   98     474949.065000000002        -0.000049207237
   99     117392.346000000005        -0.000130445831
  100      34065.440100000000        -0.000349208093
  101      11133.885300000000        -0.000884128080
  102       3988.280760000000        -0.002486027438
  103       1534.678610000000        -0.005909539905
  104        624.475513000000        -0.015276207401
  105        265.735250000000        -0.023566245602
  106        116.709586000000        -0.029559221731
  107         50.306071000000         0.072334883568
  108         23.036081700000         0.145383597416
  109         10.586238100000         0.154600285969
  110          4.798113940000        -0.671900263316
  111          2.133543170000        -0.356221659334
  112          0.857316380000         2.470609852292
  113          0.378404470000        -2.758807700097
  114          0.152386050000         0.929697283582
  115          0.060954420000         0.275783493024
 S 113
    1   18535881.300000000745        -0.000000038208
    2    2419299.990000000224        -0.000000123285
    3     474949.065000000002        -0.000000360319
    4     117392.346000000005        -0.000000962183
    5      34065.440100000000        -0.000002498301
    6      11133.885300000000        -0.000006472728
    7       3988.280760000000        -0.000016648990
    8       1534.678610000000        -0.000040091896
    9        624.475513000000        -0.000080021838
   10        265.735250000000        -0.000106397629
   11        116.709586000000        -0.000063256219
   12         50.306071000000        -0.000007539545
   13         23.036081700000        -0.000000165289
   14         10.586238100000         0.000000153623
   15          4.798113940000        -0.000000105889
   16   18535881.300000000745         0.000000078709
   17    2419299.990000000224         0.000000254245
   18     474949.065000000002         0.000000744510
   19     117392.346000000005         0.000001995336
   20      34065.440100000000         0.000005217299
   21      11133.885300000000         0.000013692689
   22       3988.280760000000         0.000036187588
   23       1534.678610000000         0.000092241622
   24        624.475513000000         0.000209118895
   25        265.735250000000         0.000361889140
   26        116.709586000000         0.000289526814
   27         50.306071000000        -0.000487586989
   28         23.036081700000        -0.001149547111
   29         10.586238100000        -0.000445325547
   30          4.798113940000        -0.000018222569
   31          2.133543170000        -0.000004986368
   32          0.857316380000         0.000001634985
   33          0.378404470000        -0.000000757148
   34   18535881.300000000745         0.000000230997
   35    2419299.990000000224         0.000000746198
   36     474949.065000000002         0.000002185901
   37     117392.346000000005         0.000005860977
   38      34065.440100000000         0.000015339828
   39      11133.885300000000         0.000040324958
   40       3988.280760000000         0.000106956610
   41       1534.678610000000         0.000274715459
   42        624.475513000000         0.000633701929
   43        265.735250000000         0.001139327222
   44        116.709586000000         0.000974768572
   45         50.306071000000        -0.002033669532
   46         23.036081700000        -0.006871374748
   47         10.586238100000        -0.002764580218
   48          4.798113940000         0.008977069504
   49          2.133543170000         0.007640507459
   50          0.857316380000         0.000416040843
   51          0.378404470000         0.000077190377
   52          0.152386050000        -0.000031922503
   53          0.060954420000         0.000010646460
   54   18535881.300000000745        -0.000001184862
   55    2419299.990000000224        -0.000003827226
   56     474949.065000000002        -0.000011209037
   57     117392.346000000005        -0.000030054078
   58      34065.440100000000        -0.000078676455
   59      11133.885300000000        -0.000206869059
   60       3988.280760000000        -0.000549015292
   61       1534.678610000000        -0.001411793435
   62        624.475513000000        -0.003265675570
   63        265.735250000000        -0.005906476003
   64        116.709586000000        -0.005112534633
   65         50.306071000000         0.011034926321
   66         23.036081700000         0.039551176751
   67         10.586238100000         0.016443639474
   68          4.798113940000        -0.068381073187
   69          2.133543170000        -0.106623629666
   70          0.857316380000         0.043680872725
   71          0.378404470000         0.160065167379
   72          0.152386050000         0.060499164231
   73          0.060954420000        -0.000187544334
   74   18535881.300000000745         0.000004859909
   75    2419299.990000000224         0.000015708573
   76     474949.065000000002         0.000045916240
   77     117392.346000000005         0.000123748079
   78      34065.440100000000         0.000320739305
   79      11133.885300000000         0.000858056073
   80       3988.280760000000         0.002218639887
   81       1534.678610000000         0.005921479723
   82        624.475513000000         0.013032046395
   83        265.735250000000         0.025536825696
   84        116.709586000000         0.017903111491
   85         50.306071000000        -0.037975560086
   86         23.036081700000        -0.192063044021
   87         10.586238100000        -0.010710710702
   88          4.798113940000         0.218193724155
   89          2.133543170000         0.799533772882
   90          0.857316380000        -1.341124321595
   91          0.378404470000        -0.275135806765
   92          0.152386050000         0.988650019042
   93          0.060954420000         0.022790977357
   94   18535881.300000000745        -0.000005472957
   95    2419299.990000000224        -0.000017650933
   96     474949.065000000002        -0.000051980118
   97     117392.346000000005        -0.000137796595
   98      34065.440100000000        -0.000368886348
   99      11133.885300000000        -0.000933949655
  100       3988.280760000000        -0.002626117778
  101       1534.678610000000        -0.006242548883
  102        624.475513000000        -0.016137038242
  103        265.735250000000        -0.024894229079
  104        116.709586000000        -0.031224915906
  105         50.306071000000         0.076411032641
  106         23.036081700000         0.153576120672
  107         10.586238100000         0.163312179612
  108          4.798113940000        -0.709762571241
  109          2.133543170000        -0.376295135847
  110          0.857316380000         2.609831394680
  111          0.378404470000        -2.914269503507
  112          0.152386050000         0.982086732954
  113          0.060954420000         0.291324191701
 P 85
    1     178109.355000000010         0.000044862185
    2      27138.037499999999         0.000233161762
    3       6512.317450000000         0.001114089218
    4       2033.629170000000         0.004941936946
    5        749.824546000000         0.019481600602
    6        308.463093000000         0.064713826169
    7        137.031449000000         0.169352624629
    8         64.114040700000         0.319610175100
    9         31.107038200000         0.372517990573
   10         15.366235600000         0.200950254455
   11          7.391254080000         0.033565715235
   12          3.530697220000         0.001268689828
   13          1.678108190000         0.000449090305
   14          0.683391650000        -0.000070776799
   15          0.276466560000         0.000014990608
   16          0.105540690000        -0.000015488966
   17          0.042216280000         0.000003827389
   18     178109.355000000010         0.000001368325
   19      27138.037499999999         0.000007117672
   20       6512.317450000000         0.000034115867
   21       2033.629170000000         0.000151873682
   22        749.824546000000         0.000605511812
   23        308.463093000000         0.002051984100
   24        137.031449000000         0.005592377164
   25         64.114040700000         0.011109273967
   26         31.107038200000         0.013514576901
   27         15.366235600000        -0.000302111922
   28          7.391254080000        -0.028080273109
   29          3.530697220000        -0.037637905713
   30          1.678108190000        -0.015899605704
   31          0.683391650000        -0.001231910858
   32          0.276466560000        -0.000010834993
   33          0.105540690000        -0.000034660519
   34          0.042216280000         0.000005440562
   35     178109.355000000010         0.000000083291
   36      27138.037499999999         0.000000432263
   37       6512.317450000000         0.000002080470
   38       2033.629170000000         0.000009217864
   39        749.824546000000         0.000037035430
   40        308.463093000000         0.000124973426
   41        137.031449000000         0.000345261846
   42         64.114040700000         0.000683610417
   43         31.107038200000         0.000854224275
   44         15.366235600000        -0.000146971576
   45          7.391254080000        -0.002104515329
   46          3.530697220000        -0.003401090157
   47          1.678108190000        -0.000595846825
   48          0.683391650000         0.006635075089
   49          0.276466560000         0.008935501937
   50          0.105540690000         0.003291496300
   51          0.042216280000         0.000017862474
   52     178109.355000000010         0.000000104565
   53      27138.037499999999         0.000000538775
   54       6512.317450000000         0.000002629008
   55       2033.629170000000         0.000011428403
   56        749.824546000000         0.000046986644
   57        308.463093000000         0.000154689117
   58        137.031449000000         0.000441018783
   59         64.114040700000         0.000838938074
   60         31.107038200000         0.001126768156
   61         15.366235600000        -0.000323668522
   62          7.391254080000        -0.002645585618
   63          3.530697220000        -0.004779055466
   64          1.678108190000        -0.000489385860
   65          0.683391650000         0.018975282488
   66          0.276466560000        -0.003928923994
   67          0.105540690000        -0.014413475144
   68          0.042216280000        -0.000641873976
   69     178109.355000000010         0.000000169737
   70      27138.037499999999         0.000000803312
   71       6512.317450000000         0.000004595516
   72       2033.629170000000         0.000015856169
   73        749.824546000000         0.000085224179
   74        308.463093000000         0.000207212486
   75        137.031449000000         0.000835860020
   76         64.114040700000         0.000971227548
   77         31.107038200000         0.002744811711
   78         15.366235600000        -0.002786457473
   79          7.391254080000        -0.000434094984
   80          3.530697220000        -0.017020539120
   81          1.678108190000         0.019731753103
   82          0.683391650000         0.018352656903
   83          0.276466560000        -0.042810890161
   84          0.105540690000         0.025445132533
   85          0.042216280000         0.002669281895
 P 84
    1     178109.355000000010        -0.000003607780
    2      27138.037499999999        -0.000018750678
    3       6512.317450000000        -0.000089594144
    4       2033.629170000000        -0.000397426527
    5        749.824546000000        -0.001566694387
    6        308.463093000000        -0.005204232973
    7        137.031449000000        -0.013619199564
    8         64.114040700000        -0.025702788882
    9         31.107038200000        -0.029957592130
   10         15.366235600000        -0.016160255112
   11          7.391254080000        -0.002699327367
   12          3.530697220000        -0.000102026998
   13          1.678108190000        -0.000036115475
   14          0.683391650000         0.000005691812
   15          0.276466560000        -0.000001205532
   16          0.105540690000         0.000001245610
   17     178109.355000000010         0.000017684672
   18      27138.037499999999         0.000091991069
   19       6512.317450000000         0.000440924367
   20       2033.629170000000         0.001962863996
   21        749.824546000000         0.007825828115
   22        308.463093000000         0.026520498123
   23        137.031449000000         0.072277669245
   24         64.114040700000         0.143579806190
   25         31.107038200000         0.174666709806
   26         15.366235600000        -0.003904591010
   27          7.391254080000        -0.362918421379
   28          3.530697220000        -0.486444318840
   29          1.678108190000        -0.205491584084
   30          0.683391650000        -0.015921609532
   31          0.276466560000        -0.000140034909
   32          0.105540690000        -0.000447963616
   33          0.042216280000         0.000070315565
   34     178109.355000000010         0.000000769219
   35      27138.037499999999         0.000003992112
   36       6512.317450000000         0.000019213923
   37       2033.629170000000         0.000085130443
   38        749.824546000000         0.000342036126
   39        308.463093000000         0.001154176609
   40        137.031449000000         0.003188623045
   41         64.114040700000         0.006313399387
   42         31.107038200000         0.007889082557
   43         15.366235600000        -0.001357337801
   44          7.391254080000        -0.019435990830
   45          3.530697220000        -0.031410347167
   46          1.678108190000        -0.005502869598
   47          0.683391650000         0.061277414713
   48          0.276466560000         0.082522722126
   49          0.105540690000         0.030398206667
   50          0.042216280000         0.000164966671
   51     178109.355000000010         0.000000891266
   52      27138.037499999999         0.000004592287
   53       6512.317450000000         0.000022408549
   54       2033.629170000000         0.000097410872
   55        749.824546000000         0.000400494277
   56        308.463093000000         0.001318504582
   57        137.031449000000         0.003759057510
   58         64.114040700000         0.007150753189
   59         31.107038200000         0.009604095033
   60         15.366235600000        -0.002758813540
   61          7.391254080000        -0.022549852474
   62          3.530697220000        -0.040734646796
   63          1.678108190000        -0.004171318012
   64          0.683391650000         0.161737279586
   65          0.276466560000        -0.033488485818
   66          0.105540690000        -0.122854363856
   67          0.042216280000        -0.005471062194
   68     178109.355000000010         0.000001234211
   69      27138.037499999999         0.000005841116
   70       6512.317450000000         0.000033415338
   71       2033.629170000000         0.000115294829
   72        749.824546000000         0.000619689850
   73        308.463093000000         0.001506702402
   74        137.031449000000         0.006077781899
   75         64.114040700000         0.007062078664
   76         31.107038200000         0.019958326201
   77         15.366235600000        -0.020261144679
   78          7.391254080000        -0.003156431187
   79          3.530697220000        -0.123761302300
   80          1.678108190000         0.143475329633
   81          0.683391650000         0.133447519080
   82          0.276466560000        -0.311290463929
   83          0.105540690000         0.185018977208
   84          0.042216280000         0.019409126888
 P 82
    1     178109.355000000010         0.000000479813
    2      27138.037499999999         0.000002493729
    3       6512.317450000000         0.000011915491
    4       2033.629170000000         0.000052855377
    5        749.824546000000         0.000208361085
    6        308.463093000000         0.000692132199
    7        137.031449000000         0.001811272975
    8         64.114040700000         0.003418318871
    9         31.107038200000         0.003984182533
   10         15.366235600000         0.002149218330
   11          7.391254080000         0.000358994571
   12          3.530697220000         0.000013568987
   13          1.678108190000         0.000004803145
   14          0.683391650000        -0.000000756977
   15     178109.355000000010         0.000004828199
   16      27138.037499999999         0.000025115039
   17       6512.317450000000         0.000120379431
   18       2033.629170000000         0.000535893382
   19        749.824546000000         0.002136576708
   20        308.463093000000         0.007240521737
   21        137.031449000000         0.019732964020
   22         64.114040700000         0.039199592062
   23         31.107038200000         0.047686815806
   24         15.366235600000        -0.001066016029
   25          7.391254080000        -0.099082555183
   26          3.530697220000        -0.132807108225
   27          1.678108190000        -0.056102501334
   28          0.683391650000        -0.004346855001
   29          0.276466560000        -0.000038231778
   30          0.105540690000        -0.000122301259
   31          0.042216280000         0.000019197278
   32     178109.355000000010        -0.000003125461
   33      27138.037499999999        -0.000016220590
   34       6512.317450000000        -0.000078069236
   35       2033.629170000000        -0.000345898584
   36        749.824546000000        -0.001389747397
   37        308.463093000000        -0.004689603866
   38        137.031449000000        -0.012955884600
   39         64.114040700000        -0.025652349850
   40         31.107038200000        -0.032054602178
   41         15.366235600000         0.005515080229
   42          7.391254080000         0.078971534328
   43          3.530697220000         0.127625256220
   44          1.678108190000         0.022359037887
   45          0.683391650000        -0.248979920905
   46          0.276466560000        -0.335302997428
   47          0.105540690000        -0.123512767746
   48          0.042216280000        -0.000670285926
   49     178109.355000000010        -0.000003386133
   50      27138.037499999999        -0.000017447192
   51       6512.317450000000        -0.000085135408
   52       2033.629170000000        -0.000370087074
   53        749.824546000000        -0.001521573024
   54        308.463093000000        -0.005009312539
   55        137.031449000000        -0.014281553648
   56         64.114040700000        -0.027167412317
   57         31.107038200000        -0.036488241558
   58         15.366235600000         0.010481388879
   59          7.391254080000         0.085672253484
   60          3.530697220000         0.154760612734
   61          1.678108190000         0.015847829361
   62          0.683391650000        -0.614478397612
   63          0.276466560000         0.127230723533
   64          0.105540690000         0.466752951671
   65          0.042216280000         0.020785866679
   66     178109.355000000010        -0.000003853684
   67      27138.037499999999        -0.000018238225
   68       6512.317450000000        -0.000104335619
   69       2033.629170000000        -0.000359995088
   70        749.824546000000        -0.001934911597
   71        308.463093000000        -0.004704508149
   72        137.031449000000        -0.018977187819
   73         64.114040700000        -0.022050543343
   74         31.107038200000        -0.062317620337
   75         15.366235600000         0.063263136848
   76          7.391254080000         0.009855600031
   77          3.530697220000         0.386430694215
   78          1.678108190000        -0.447985518917
   79          0.683391650000        -0.416674812570
   80          0.276466560000         0.971969330020
   81          0.105540690000        -0.577700868339
   82          0.042216280000        -0.060602807485
 P 81
    1     178109.355000000010        -0.000000174695
    2      27138.037499999999        -0.000000907939
    3       6512.317450000000        -0.000004338298
    4       2033.629170000000        -0.000019244057
    5        749.824546000000        -0.000075861963
    6        308.463093000000        -0.000251997666
    7        137.031449000000        -0.000659464424
    8         64.114040700000        -0.001244572031
    9         31.107038200000        -0.001450596721
   10         15.366235600000        -0.000782506584
   11          7.391254080000        -0.000130705946
   12          3.530697220000        -0.000004940318
   13          1.678108190000        -0.000001748772
   14          0.683391650000         0.000000275607
   15     178109.355000000010        -0.000000451201
   16      27138.037499999999        -0.000002347030
   17       6512.317450000000        -0.000011249598
   18       2033.629170000000        -0.000050079861
   19        749.824546000000        -0.000199665584
   20        308.463093000000        -0.000676635197
   21        137.031449000000        -0.001844068491
   22         64.114040700000        -0.003663247573
   23         31.107038200000        -0.004456388526
   24         15.366235600000         0.000099620441
   25          7.391254080000         0.009259380283
   26          3.530697220000         0.012410979077
[...]
  BAS[ATNO][ 10].a[ 45] =         0.105540690000;     BAS[ATNO][ 10].d[ 45] =        -0.052173438636;
  BAS[ATNO][ 10].a[ 46] =         0.042216280000;     BAS[ATNO][ 10].d[ 46] =        -0.000283137705;
  BAS[ATNO][ 10].a[ 47] =    178109.355000000010;     BAS[ATNO][ 10].d[ 47] =         0.000004531756;
  BAS[ATNO][ 10].a[ 48] =     27138.037499999999;     BAS[ATNO][ 10].d[ 48] =         0.000023350063;
  BAS[ATNO][ 10].a[ 49] =      6512.317450000000;     BAS[ATNO][ 10].d[ 49] =         0.000113939088;
  BAS[ATNO][ 10].a[ 50] =      2033.629170000000;     BAS[ATNO][ 10].d[ 50] =         0.000495297839;
  BAS[ATNO][ 10].a[ 51] =       749.824546000000;     BAS[ATNO][ 10].d[ 51] =         0.002036363560;
  BAS[ATNO][ 10].a[ 52] =       308.463093000000;     BAS[ATNO][ 10].d[ 52] =         0.006704102502;
  BAS[ATNO][ 10].a[ 53] =       137.031449000000;     BAS[ATNO][ 10].d[ 53] =         0.019113401049;
  BAS[ATNO][ 10].a[ 54] =        64.114040700000;     BAS[ATNO][ 10].d[ 54] =         0.036358904631;
  BAS[ATNO][ 10].a[ 55] =        31.107038200000;     BAS[ATNO][ 10].d[ 55] =         0.048833230029;
  BAS[ATNO][ 10].a[ 56] =        15.366235600000;     BAS[ATNO][ 10].d[ 56] =        -0.014027534688;
  BAS[ATNO][ 10].a[ 57] =         7.391254080000;     BAS[ATNO][ 10].d[ 57] =        -0.114657563173;
  BAS[ATNO][ 10].a[ 58] =         3.530697220000;     BAS[ATNO][ 10].d[ 58] =        -0.207120438760;
  BAS[ATNO][ 10].a[ 59] =         1.678108190000;     BAS[ATNO][ 10].d[ 59] =        -0.021209591463;
  BAS[ATNO][ 10].a[ 60] =         0.683391650000;     BAS[ATNO][ 10].d[ 60] =         0.822373555350;
  BAS[ATNO][ 10].a[ 61] =         0.276466560000;     BAS[ATNO][ 10].d[ 61] =        -0.170276421219;
  BAS[ATNO][ 10].a[ 62] =         0.105540690000;     BAS[ATNO][ 10].d[ 62] =        -0.624668476267;
  BAS[ATNO][ 10].a[ 63] =         0.042216280000;     BAS[ATNO][ 10].d[ 63] =        -0.027818304351;
  BAS[ATNO][ 10].a[ 64] =    178109.355000000010;     BAS[ATNO][ 10].d[ 64] =        -0.000004732889;
  BAS[ATNO][ 10].a[ 65] =     27138.037499999999;     BAS[ATNO][ 10].d[ 65] =        -0.000022399218;
  BAS[ATNO][ 10].a[ 66] =      6512.317450000000;     BAS[ATNO][ 10].d[ 66] =        -0.000128139460;
  BAS[ATNO][ 10].a[ 67] =      2033.629170000000;     BAS[ATNO][ 10].d[ 67] =        -0.000442126826;
  BAS[ATNO][ 10].a[ 68] =       749.824546000000;     BAS[ATNO][ 10].d[ 68] =        -0.002376355541;
  BAS[ATNO][ 10].a[ 69] =       308.463093000000;     BAS[ATNO][ 10].d[ 69] =        -0.005777826762;
  BAS[ATNO][ 10].a[ 70] =       137.031449000000;     BAS[ATNO][ 10].d[ 70] =        -0.023306773028;
  BAS[ATNO][ 10].a[ 71] =        64.114040700000;     BAS[ATNO][ 10].d[ 71] =        -0.027081304866;
  BAS[ATNO][ 10].a[ 72] =        31.107038200000;     BAS[ATNO][ 10].d[ 72] =        -0.076535187756;
  BAS[ATNO][ 10].a[ 73] =        15.366235600000;     BAS[ATNO][ 10].d[ 73] =         0.077696420860;
  BAS[ATNO][ 10].a[ 74] =         7.391254080000;     BAS[ATNO][ 10].d[ 74] =         0.012104123918;
  BAS[ATNO][ 10].a[ 75] =         3.530697220000;     BAS[ATNO][ 10].d[ 75] =         0.474593631412;
  BAS[ATNO][ 10].a[ 76] =         1.678108190000;     BAS[ATNO][ 10].d[ 76] =        -0.550191994130;
  BAS[ATNO][ 10].a[ 77] =         0.683391650000;     BAS[ATNO][ 10].d[ 77] =        -0.511737849442;
  BAS[ATNO][ 10].a[ 78] =         0.276466560000;     BAS[ATNO][ 10].d[ 78] =         1.193721049754;
  BAS[ATNO][ 10].a[ 79] =         0.105540690000;     BAS[ATNO][ 10].d[ 79] =        -0.709501489088;
  BAS[ATNO][ 10].a[ 80] =         0.042216280000;     BAS[ATNO][ 10].d[ 80] =        -0.074429145792;

  // Basis function  12 L = d
  InitBFNGauss(BAS[ATNO][ 11]);
  BAS[ATNO][ 11].l  = 2;
  BAS[ATNO][ 11].ng = 33;
  BAS[ATNO][ 11].a[  0] =       624.475513000000;     BAS[ATNO][ 11].d[  0] =         0.000630499953;
  BAS[ATNO][ 11].a[  1] =       265.735250000000;     BAS[ATNO][ 11].d[  1] =         0.002198484098;
  BAS[ATNO][ 11].a[  2] =       116.709586000000;     BAS[ATNO][ 11].d[  2] =         0.013146814219;
  BAS[ATNO][ 11].a[  3] =        50.306071000000;     BAS[ATNO][ 11].d[  3] =         0.050510961121;
  BAS[ATNO][ 11].a[  4] =        23.036081700000;     BAS[ATNO][ 11].d[  4] =         0.144372960635;
  BAS[ATNO][ 11].a[  5] =        10.586238100000;     BAS[ATNO][ 11].d[  5] =         0.292896748777;
  BAS[ATNO][ 11].a[  6] =         4.798113940000;     BAS[ATNO][ 11].d[  6] =         0.374170659459;
  BAS[ATNO][ 11].a[  7] =         2.133543170000;     BAS[ATNO][ 11].d[  7] =         0.282416119702;
  BAS[ATNO][ 11].a[  8] =         0.857316380000;     BAS[ATNO][ 11].d[  8] =         0.081000066514;
  BAS[ATNO][ 11].a[  9] =         0.342926550000;     BAS[ATNO][ 11].d[  9] =         0.000339623062;
  BAS[ATNO][ 11].a[ 10] =         0.137170620000;     BAS[ATNO][ 11].d[ 10] =         0.001606637920;
  BAS[ATNO][ 11].a[ 11] =       624.475513000000;     BAS[ATNO][ 11].d[ 11] =         0.000037116710;
  BAS[ATNO][ 11].a[ 12] =       265.735250000000;     BAS[ATNO][ 11].d[ 12] =         0.000145027996;
  BAS[ATNO][ 11].a[ 13] =       116.709586000000;     BAS[ATNO][ 11].d[ 13] =         0.000786987004;
  BAS[ATNO][ 11].a[ 14] =        50.306071000000;     BAS[ATNO][ 11].d[ 14] =         0.003215637789;
  BAS[ATNO][ 11].a[ 15] =        23.036081700000;     BAS[ATNO][ 11].d[ 15] =         0.008767502415;
  BAS[ATNO][ 11].a[ 16] =        10.586238100000;     BAS[ATNO][ 11].d[ 16] =         0.019498504446;
  BAS[ATNO][ 11].a[ 17] =         4.798113940000;     BAS[ATNO][ 11].d[ 17] =         0.022838297754;
  BAS[ATNO][ 11].a[ 18] =         2.133543170000;     BAS[ATNO][ 11].d[ 18] =         0.021437327812;
  BAS[ATNO][ 11].a[ 19] =         0.857316380000;     BAS[ATNO][ 11].d[ 19] =        -0.085717375006;
  BAS[ATNO][ 11].a[ 20] =         0.342926550000;     BAS[ATNO][ 11].d[ 20] =        -0.118212304089;
  BAS[ATNO][ 11].a[ 21] =         0.137170620000;     BAS[ATNO][ 11].d[ 21] =        -0.018510199406;
  BAS[ATNO][ 11].a[ 22] =       624.475513000000;     BAS[ATNO][ 11].d[ 22] =         0.000053377126;
  BAS[ATNO][ 11].a[ 23] =       265.735250000000;     BAS[ATNO][ 11].d[ 23] =         0.000075924392;
  BAS[ATNO][ 11].a[ 24] =       116.709586000000;     BAS[ATNO][ 11].d[ 24] =         0.001012059037;
  BAS[ATNO][ 11].a[ 25] =        50.306071000000;     BAS[ATNO][ 11].d[ 25] =         0.002542783952;
  BAS[ATNO][ 11].a[ 26] =        23.036081700000;     BAS[ATNO][ 11].d[ 26] =         0.010629207971;
  BAS[ATNO][ 11].a[ 27] =        10.586238100000;     BAS[ATNO][ 11].d[ 27] =         0.017687483985;
  BAS[ATNO][ 11].a[ 28] =         4.798113940000;     BAS[ATNO][ 11].d[ 28] =         0.037943599771;
  BAS[ATNO][ 11].a[ 29] =         2.133543170000;     BAS[ATNO][ 11].d[ 29] =         0.017580407366;
  BAS[ATNO][ 11].a[ 30] =         0.857316380000;     BAS[ATNO][ 11].d[ 30] =        -0.226083022585;
  BAS[ATNO][ 11].a[ 31] =         0.342926550000;     BAS[ATNO][ 11].d[ 31] =         0.139549038829;
  BAS[ATNO][ 11].a[ 32] =         0.137170620000;     BAS[ATNO][ 11].d[ 32] =         0.075619315675;

  // Basis function  13 L = d
  InitBFNGauss(BAS[ATNO][ 12]);
  BAS[ATNO][ 12].l  = 2;
  BAS[ATNO][ 12].ng = 33;
  BAS[ATNO][ 12].a[  0] =       624.475513000000;     BAS[ATNO][ 12].d[  0] =         0.000173843384;
  BAS[ATNO][ 12].a[  1] =       265.735250000000;     BAS[ATNO][ 12].d[  1] =         0.000606172790;
  BAS[ATNO][ 12].a[  2] =       116.709586000000;     BAS[ATNO][ 12].d[  2] =         0.003624880009;
  BAS[ATNO][ 12].a[  3] =        50.306071000000;     BAS[ATNO][ 12].d[  3] =         0.013927037392;
  BAS[ATNO][ 12].a[  4] =        23.036081700000;     BAS[ATNO][ 12].d[  4] =         0.039806956284;
  BAS[ATNO][ 12].a[  5] =        10.586238100000;     BAS[ATNO][ 12].d[  5] =         0.080758391481;
  BAS[ATNO][ 12].a[  6] =         4.798113940000;     BAS[ATNO][ 12].d[  6] =         0.103167483844;
  BAS[ATNO][ 12].a[  7] =         2.133543170000;     BAS[ATNO][ 12].d[  7] =         0.077868640231;
  BAS[ATNO][ 12].a[  8] =         0.857316380000;     BAS[ATNO][ 12].d[  8] =         0.022333587207;
  BAS[ATNO][ 12].a[  9] =         0.342926550000;     BAS[ATNO][ 12].d[  9] =         0.000093641914;
  BAS[ATNO][ 12].a[ 10] =         0.137170620000;     BAS[ATNO][ 12].d[ 10] =         0.000442987144;
  BAS[ATNO][ 12].a[ 11] =       624.475513000000;     BAS[ATNO][ 12].d[ 11] =        -0.000141133996;
  BAS[ATNO][ 12].a[ 12] =       265.735250000000;     BAS[ATNO][ 12].d[ 12] =        -0.000551459999;
  BAS[ATNO][ 12].a[ 13] =       116.709586000000;     BAS[ATNO][ 12].d[ 13] =        -0.002992469481;
  BAS[ATNO][ 12].a[ 14] =        50.306071000000;     BAS[ATNO][ 12].d[ 14] =        -0.012227264100;
  BAS[ATNO][ 12].a[ 15] =        23.036081700000;     BAS[ATNO][ 12].d[ 15] =        -0.033337886467;
  BAS[ATNO][ 12].a[ 16] =        10.586238100000;     BAS[ATNO][ 12].d[ 16] =        -0.074141858962;
  BAS[ATNO][ 12].a[ 17] =         4.798113940000;     BAS[ATNO][ 12].d[ 17] =        -0.086841216755;
  BAS[ATNO][ 12].a[ 18] =         2.133543170000;     BAS[ATNO][ 12].d[ 18] =        -0.081514115074;
  BAS[ATNO][ 12].a[ 19] =         0.857316380000;     BAS[ATNO][ 12].d[ 19] =         0.325935024707;
  BAS[ATNO][ 12].a[ 20] =         0.342926550000;     BAS[ATNO][ 12].d[ 20] =         0.449494985715;
  BAS[ATNO][ 12].a[ 21] =         0.137170620000;     BAS[ATNO][ 12].d[ 21] =         0.070383890083;
  BAS[ATNO][ 12].a[ 22] =       624.475513000000;     BAS[ATNO][ 12].d[ 22] =        -0.000182066749;
  BAS[ATNO][ 12].a[ 23] =       265.735250000000;     BAS[ATNO][ 12].d[ 23] =        -0.000258974363;
  BAS[ATNO][ 12].a[ 24] =       116.709586000000;     BAS[ATNO][ 12].d[ 24] =        -0.003452083524;
  BAS[ATNO][ 12].a[ 25] =        50.306071000000;     BAS[ATNO][ 12].d[ 25] =        -0.008673310810;
  BAS[ATNO][ 12].a[ 26] =        23.036081700000;     BAS[ATNO][ 12].d[ 26] =        -0.036255704817;
  BAS[ATNO][ 12].a[ 27] =        10.586238100000;     BAS[ATNO][ 12].d[ 27] =        -0.060331136627;
  BAS[ATNO][ 12].a[ 28] =         4.798113940000;     BAS[ATNO][ 12].d[ 28] =        -0.129423749802;
  BAS[ATNO][ 12].a[ 29] =         2.133543170000;     BAS[ATNO][ 12].d[ 29] =        -0.059965903556;
  BAS[ATNO][ 12].a[ 30] =         0.857316380000;     BAS[ATNO][ 12].d[ 30] =         0.771158053704;
  BAS[ATNO][ 12].a[ 31] =         0.342926550000;     BAS[ATNO][ 12].d[ 31] =        -0.475994897580;
  BAS[ATNO][ 12].a[ 32] =         0.137170620000;     BAS[ATNO][ 12].d[ 32] =        -0.257933760933;

  // Basis function  14 L = d
  InitBFNGauss(BAS[ATNO][ 13]);
  BAS[ATNO][ 13].l  = 2;
  BAS[ATNO][ 13].ng = 33;
  BAS[ATNO][ 13].a[  0] =       624.475513000000;     BAS[ATNO][ 13].d[  0] =         0.000009056065;
  BAS[ATNO][ 13].a[  1] =       265.735250000000;     BAS[ATNO][ 13].d[  1] =         0.000031577505;
  BAS[ATNO][ 13].a[  2] =       116.709586000000;     BAS[ATNO][ 13].d[  2] =         0.000188831746;
  BAS[ATNO][ 13].a[  3] =        50.306071000000;     BAS[ATNO][ 13].d[  3] =         0.000725504510;
  BAS[ATNO][ 13].a[  4] =        23.036081700000;     BAS[ATNO][ 13].d[  4] =         0.002073673351;
  BAS[ATNO][ 13].a[  5] =        10.586238100000;     BAS[ATNO][ 13].d[  5] =         0.004206966318;
  BAS[ATNO][ 13].a[  6] =         4.798113940000;     BAS[ATNO][ 13].d[  6] =         0.005374328558;
  BAS[ATNO][ 13].a[  7] =         2.133543170000;     BAS[ATNO][ 13].d[  7] =         0.004056429811;
  BAS[ATNO][ 13].a[  8] =         0.857316380000;     BAS[ATNO][ 13].d[  8] =         0.001163428932;
  BAS[ATNO][ 13].a[  9] =         0.342926550000;     BAS[ATNO][ 13].d[  9] =         0.000004878111;
  BAS[ATNO][ 13].a[ 10] =         0.137170620000;     BAS[ATNO][ 13].d[ 10] =         0.000023076636;
  BAS[ATNO][ 13].a[ 11] =       624.475513000000;     BAS[ATNO][ 13].d[ 11] =         0.000125123612;
  BAS[ATNO][ 13].a[ 12] =       265.735250000000;     BAS[ATNO][ 13].d[ 12] =         0.000488901816;
  BAS[ATNO][ 13].a[ 13] =       116.709586000000;     BAS[ATNO][ 13].d[ 13] =         0.002653000701;
  BAS[ATNO][ 13].a[ 14] =        50.306071000000;     BAS[ATNO][ 13].d[ 14] =         0.010840190830;
  BAS[ATNO][ 13].a[ 15] =        23.036081700000;     BAS[ATNO][ 13].d[ 15] =         0.029556002736;
  BAS[ATNO][ 13].a[ 16] =        10.586238100000;     BAS[ATNO][ 13].d[ 16] =         0.065731131111;
  BAS[ATNO][ 13].a[ 17] =         4.798113940000;     BAS[ATNO][ 13].d[ 17] =         0.076989860846;
  BAS[ATNO][ 13].a[ 18] =         2.133543170000;     BAS[ATNO][ 13].d[ 18] =         0.072267070995;
  BAS[ATNO][ 13].a[ 19] =         0.857316380000;     BAS[ATNO][ 13].d[ 19] =        -0.288960624168;
  BAS[ATNO][ 13].a[ 20] =         0.342926550000;     BAS[ATNO][ 13].d[ 20] =        -0.398503817592;
  BAS[ATNO][ 13].a[ 21] =         0.137170620000;     BAS[ATNO][ 13].d[ 21] =        -0.062399470042;
  BAS[ATNO][ 13].a[ 22] =       624.475513000000;     BAS[ATNO][ 13].d[ 22] =        -0.000221197189;
  BAS[ATNO][ 13].a[ 23] =       265.735250000000;     BAS[ATNO][ 13].d[ 23] =        -0.000314634064;
  BAS[ATNO][ 13].a[ 24] =       116.709586000000;     BAS[ATNO][ 13].d[ 24] =        -0.004194017725;
  BAS[ATNO][ 13].a[ 25] =        50.306071000000;     BAS[ATNO][ 13].d[ 25] =        -0.010537409949;
  BAS[ATNO][ 13].a[ 26] =        23.036081700000;     BAS[ATNO][ 13].d[ 26] =        -0.044047911234;
  BAS[ATNO][ 13].a[ 27] =        10.586238100000;     BAS[ATNO][ 13].d[ 27] =        -0.073297721399;
  BAS[ATNO][ 13].a[ 28] =         4.798113940000;     BAS[ATNO][ 13].d[ 28] =        -0.157239967383;
  BAS[ATNO][ 13].a[ 29] =         2.133543170000;     BAS[ATNO][ 13].d[ 29] =        -0.072853991123;
  BAS[ATNO][ 13].a[ 30] =         0.857316380000;     BAS[ATNO][ 13].d[ 30] =         0.936898114888;
  BAS[ATNO][ 13].a[ 31] =         0.342926550000;     BAS[ATNO][ 13].d[ 31] =        -0.578297432149;
  BAS[ATNO][ 13].a[ 32] =         0.137170620000;     BAS[ATNO][ 13].d[ 32] =        -0.313369812093;

  // Basis function  15 L = f
  InitBFNGauss(BAS[ATNO][ 14]);
  BAS[ATNO][ 14].l  = 3;
  BAS[ATNO][ 14].ng = 8;
  BAS[ATNO][ 14].a[  0] =         1.688892000000;     BAS[ATNO][ 14].d[  0] =        -0.080616076683;
  BAS[ATNO][ 14].a[  1] =         0.675557000000;     BAS[ATNO][ 14].d[  1] =        -0.604781253159;
  BAS[ATNO][ 14].a[  2] =         0.270223000000;     BAS[ATNO][ 14].d[  2] =        -0.199743749464;
  BAS[ATNO][ 14].a[  3] =         0.108089000000;     BAS[ATNO][ 14].d[  3] =        -0.003511031746;
  BAS[ATNO][ 14].a[  4] =         1.688892000000;     BAS[ATNO][ 14].d[  4] =        -0.277152561767;
  BAS[ATNO][ 14].a[  5] =         0.675557000000;     BAS[ATNO][ 14].d[  5] =        -0.322043817942;
  BAS[ATNO][ 14].a[  6] =         0.270223000000;     BAS[ATNO][ 14].d[  6] =         0.676274436934;
  BAS[ATNO][ 14].a[  7] =         0.108089000000;     BAS[ATNO][ 14].d[  7] =        -0.059953008083;

  // Basis function  16 L = f
  InitBFNGauss(BAS[ATNO][ 15]);
  BAS[ATNO][ 15].l  = 3;
  BAS[ATNO][ 15].ng = 8;
  BAS[ATNO][ 15].a[  0] =         1.688892000000;     BAS[ATNO][ 15].d[  0] =         0.061155629211;
  BAS[ATNO][ 15].a[  1] =         0.675557000000;     BAS[ATNO][ 15].d[  1] =         0.458789109987;
  BAS[ATNO][ 15].a[  2] =         0.270223000000;     BAS[ATNO][ 15].d[  2] =         0.151526285849;
  BAS[ATNO][ 15].a[  3] =         0.108089000000;     BAS[ATNO][ 15].d[  3] =         0.002663480591;
  BAS[ATNO][ 15].a[  4] =         1.688892000000;     BAS[ATNO][ 15].d[  4] =        -0.365345799952;
  BAS[ATNO][ 15].a[  5] =         0.675557000000;     BAS[ATNO][ 15].d[  5] =        -0.424521987224;
  BAS[ATNO][ 15].a[  6] =         0.270223000000;     BAS[ATNO][ 15].d[  6] =         0.891472998026;
  BAS[ATNO][ 15].a[  7] =         0.108089000000;     BAS[ATNO][ 15].d[  7] =        -0.079030767596;

  // Basis function  17 L = g
  InitBFNGauss(BAS[ATNO][ 16]);
  BAS[ATNO][ 16].l  = 4;
  BAS[ATNO][ 16].ng = 2;
  BAS[ATNO][ 16].a[  0] =         0.844446000000;     BAS[ATNO][ 16].d[  0] =         0.778246217280;
  BAS[ATNO][ 16].a[  1] =         0.337778000000;     BAS[ATNO][ 16].d[  1] =         0.324482678866;

-------
TIMINGS
-------

Total SCF time: 0 days 0 hours 0 min 33 sec 

Total time                  ....      33.955 sec
Sum of individual times     ....      33.589 sec  ( 98.9%)

Fock matrix formation       ....      32.805 sec  ( 96.6%)
  XC integration            ....       0.045 sec  (  0.1% of F)
    Basis function eval.    ....       0.019 sec  ( 41.8% of XC)
    Density eval.           ....       0.002 sec  (  4.0% of XC)
    XC-Functional eval.     ....       0.002 sec  (  4.0% of XC)
    XC-Potential eval.      ....       0.003 sec  (  6.9% of XC)
Diagonalization             ....       0.001 sec  (  0.0%)
Density matrix formation    ....       0.001 sec  (  0.0%)
Population analysis         ....       0.001 sec  (  0.0%)
Initial guess               ....       0.105 sec  (  0.3%)
Orbital Transformation      ....       0.000 sec  (  0.0%)
Orbital Orthonormalization  ....       0.000 sec  (  0.0%)
DIIS solution               ....       0.000 sec  (  0.0%)
SOSCF solution              ....       0.001 sec  (  0.0%)
Grid generation             ....       0.674 sec  (  2.0%)

-------------------------   --------------------
FINAL SINGLE POINT ENERGY     -1266.827616232447
-------------------------   --------------------


                            ***************************************
                            *     ORCA property calculations      *
                            ***************************************

                                    ---------------------
                                    Active property flags
                                    ---------------------
   (+) Dipole Moment


------------------------------------------------------------------------------
                       ORCA ELECTRIC PROPERTIES CALCULATION
------------------------------------------------------------------------------

Dipole Moment Calculation                       ... on
Quadrupole Moment Calculation                   ... off
Polarizability Calculation                      ... off
GBWName                                         ... Kr_ano-rcc-tzp_274.071978_.gbw
Electron density file                           ... Kr_ano-rcc-tzp_274.071978_.scfp
The origin for moment calculation is the CENTER OF MASS  = ( 0.000000,  0.000000  0.000000)

-------------
DIPOLE MOMENT
-------------
                                X             Y             Z
Electronic contribution:      0.00000       0.00000       0.00000
Nuclear contribution   :      0.00000       0.00000       0.00000
                        -----------------------------------------
Total Dipole Moment    :      0.00000       0.00000       0.00000
                        -----------------------------------------
Magnitude (a.u.)       :      0.00000
Magnitude (Debye)      :      0.00000



--------------------
Rotational spectrum 
--------------------
 
Rotational constants in cm-1:     0.000000     0.000000     0.000000 
Rotational constants in MHz :     0.000000     0.000000     0.000000 

 Dipole components along the rotational axes: 
x,y,z [a.u.] :     0.000000     0.000000     0.000000 
x,y,z [Debye]:     0.000000     0.000000     0.000000 

 

Timings for individual modules:

Sum of individual times         ...       35.594 sec (=   0.593 min)
GTO integral calculation        ...        0.792 sec (=   0.013 min)   2.2 %
Relativistic integrals          ...        0.528 sec (=   0.009 min)   1.5 %
SCF iterations                  ...       34.274 sec (=   0.571 min)  96.3 %
                             ****ORCA TERMINATED NORMALLY****
TOTAL RUN TIME: 0 days 0 hours 0 minutes 36 seconds 3 msec
