
                                 *****************
                                 * O   R   C   A *
                                 *****************

           --- An Ab Initio, DFT and Semiempirical electronic structure package ---

                  #######################################################
                  #                        -***-                        #
                  #          Department of theory and spectroscopy      #
                  #               Directorship: Frank Neese             #
                  #        Max Planck Institute fuer Kohlenforschung    #
                  #                Kaiser Wilhelm Platz 1               #
                  #                 D-45470 Muelheim/Ruhr               #
                  #                      Germany                        #
                  #                                                     #
                  #                  All rights reserved                #
                  #                        -***-                        #
                  #######################################################


                         Program Version 4.2.1 -  RELEASE  -


 With contributions from (in alphabetic order):
   Daniel Aravena         : Magnetic Suceptibility
   Michael Atanasov       : Ab Initio Ligand Field Theory (pilot matlab implementation)
   Alexander A. Auer      : GIAO ZORA, VPT2
   Ute Becker             : Parallelization
   Giovanni Bistoni       : ED, misc. LED, open-shell LED, HFLD
   Martin Brehm           : Molecular dynamics
   Dmytro Bykov           : SCF Hessian
   Vijay G. Chilkuri      : MRCI spin determinant printing, contributions to CSF-ICE
   Dipayan Datta          : RHF DLPNO-CCSD density
   Achintya Kumar Dutta   : EOM-CC, STEOM-CC
   Dmitry Ganyushin       : Spin-Orbit,Spin-Spin,Magnetic field MRCI
   Miquel Garcia          : C-PCM Hessian, Gaussian charge scheme
   Yang Guo               : DLPNO-NEVPT2, CIM, IAO-localization
   Andreas Hansen         : Spin unrestricted coupled pair/coupled cluster methods
   Benjamin Helmich-Paris : CASSCF linear response (MC-RPA)
   Lee Huntington         : MR-EOM, pCC
   Robert Izsak           : Overlap fitted RIJCOSX, COSX-SCS-MP3, EOM
   Christian Kollmar      : KDIIS, OOCD, Brueckner-CCSD(T), CCSD density
   Simone Kossmann        : Meta GGA functionals, TD-DFT gradient, OOMP2, MP2 Hessian
   Martin Krupicka        : AUTO-CI
   Lucas Lang             : DCDCAS
   Dagmar Lenk            : GEPOL surface, SMD
   Dimitrios Liakos       : Extrapolation schemes; Compound Job, initial MDCI parallelization
   Dimitrios Manganas     : Further ROCIS development; embedding schemes
   Dimitrios Pantazis     : SARC Basis sets
   Taras Petrenko         : DFT Hessian,TD-DFT gradient, ASA, ECA, R-Raman, ABS, FL, XAS/XES, NRVS
   Peter Pinski           : DLPNO-MP2, DLPNO-MP2 Gradient
   Christoph Reimann      : Effective Core Potentials
   Marius Retegan         : Local ZFS, SOC
   Christoph Riplinger    : Optimizer, TS searches, QM/MM, DLPNO-CCSD(T), (RO)-DLPNO pert. Triples
   Tobias Risthaus        : Range-separated hybrids, TD-DFT gradient, RPA, STAB
   Michael Roemelt        : Original ROCIS implementation
   Masaaki Saitow         : Open-shell DLPNO-CCSD energy and density
   Barbara Sandhoefer     : DKH picture change effects
   Avijit Sen             : IP-ROCIS
   Kantharuban Sivalingam : CASSCF convergence, NEVPT2, FIC-MRCI
   Bernardo de Souza      : ESD, SOC TD-DFT
   Georgi Stoychev        : AutoAux, RI-MP2 NMR
   Willem Van den Heuvel  : Paramagnetic NMR
   Boris Wezisla          : Elementary symmetry handling
   Frank Wennmohs         : Technical directorship


 We gratefully acknowledge several colleagues who have allowed us to
 interface, adapt or use parts of their codes:
   Stefan Grimme, W. Hujo, H. Kruse,             : VdW corrections, initial TS optimization,
                  C. Bannwarth                     DFT functionals, gCP, sTDA/sTD-DF
   Ed Valeev, F. Pavosevic, A. Kumar             : LibInt (2-el integral package), F12 methods
   Garnet Chan, S. Sharma, J. Yang, R. Olivares  : DMRG
   Ulf Ekstrom                                   : XCFun DFT Library
   Mihaly Kallay                                 : mrcc  (arbitrary order and MRCC methods)
   Andreas Klamt, Michael Diedenhofen            : otool_cosmo (COSMO solvation model)
   Jiri Pittner, Ondrej Demel                    : Mk-CCSD
   Frank Weinhold                                : gennbo (NPA and NBO analysis)
   Christopher J. Cramer and Donald G. Truhlar   : smd solvation model
   Lars Goerigk                                  : TD-DFT with DH, B97 family of functionals
   V. Asgeirsson, H. Jonsson                     : NEB implementation
   FAccTs GmbH                                   : IRC, NEB, NEB-TS, Multilevel, MM, QM/MM, CI optimization
   S Lehtola, MJT Oliveira, MAL Marques          : LibXC Library


 Your calculation uses the libint2 library for the computation of 2-el integrals
 For citations please refer to: http://libint.valeyev.net

 Your ORCA version has been built with support for libXC version: 4.2.3
 For citations please refer to: https://tddft.org/programs/libxc/

 This ORCA versions uses:
   CBLAS   interface :  Fast vector & matrix operations
   LAPACKE interface :  Fast linear algebra routines
   SCALAPACK package :  Parallel linear algebra routines


----- Orbital basis set information -----
Your calculation utilizes the basis: ANO-RCC-TZP
   H, He:       P.-O. Widmark, P.-A. Malmqvist, and B. O. Roos, Theor. Chim. Acta 77, 291 (1990).
   s block:     B. O. Roos, V. Veryazov and P.-O. Widmark, Theor. Chem. Acc. 111, 345 (2004).
   p block:     B. O. Roos, R. Lindh, P.-A. Malmqvist, V. Veryazov, and P.-O. Widmark, J. Phys. Chem. A 108, 2851 (2004).
   d block:     B. O. Roos, R. Lindh, P.-A. Malmqvist, V. Veryazov, and P.-O. Widmark, J. Phys. Chem. A 109, 6575 (2005).
   actinides:   B. O. Roos, R. Lindh, P.-A. Malmqvist, V. Veryazov, and P.-O. Widmark, Chem. Phys. Letters 409, 295 (2005).
   lanthanides: B. O. Roos, R. Lindh, P.-A. Malmqvist, V. Veryazov, P.-O. Widmark and A. C. Borin, J. Phys. Chem. A 112, 11431 (2008).

================================================================================
                                        WARNINGS
                       Please study these warnings very carefully!
================================================================================


INFO   : the flag for use of LIBINT has been found!

================================================================================
                                       INPUT FILE
================================================================================
NAME = Kr_ano-rcc-tzp_34.25899725_.inp
|  1> ! LDA ano-rcc-tzp nori grid5 finalgrid6 verytightscf
|  2> %Pal NProcs 18 End
|  3> 
|  4> % REL
|  5>   Method ZORA
|  6>   ModelPot 1, 0, 0, 0
|  7>   velit 34.25899725
|  8> END
|  9> 
| 10> *xyz 34 1
| 11> Kr 0.0 0.0 0.0
| 12> **                         ****END OF INPUT****
================================================================================

                       ****************************
                       * Single Point Calculation *
                       ****************************

---------------------------------
CARTESIAN COORDINATES (ANGSTROEM)
---------------------------------
  Kr     0.000000    0.000000    0.000000

----------------------------
CARTESIAN COORDINATES (A.U.)
----------------------------
  NO LB      ZA    FRAG     MASS         X           Y           Z
   0 Kr   36.0000    0    83.800    0.000000    0.000000    0.000000

--------------------------------
INTERNAL COORDINATES (ANGSTROEM)
--------------------------------
 Kr     0   0   0     0.000000000000     0.00000000     0.00000000

---------------------------
INTERNAL COORDINATES (A.U.)
---------------------------
 Kr     0   0   0     0.000000000000     0.00000000     0.00000000

---------------------
BASIS SET INFORMATION
---------------------
There are 1 groups of distinct atoms

 Group   1 Type Kr  : 120s85p33d8f2g contracted to 6s5p3d2f1g pattern {202020202020/1717171717/111111/44/2}

Atom   0Kr   basis set group =>   1


           ************************************************************
           *        Program running with 18 parallel MPI-processes    *
           *              working on a common directory               *
           ************************************************************


------------------------------------------------------------------------------
                       ORCA GTO INTEGRAL CALCULATION
                     -- ANO INTEGRAL GENERATION BRANCH --
------------------------------------------------------------------------------


Gathering ANO information                         ... done
Calculation Information:
Number of atoms                                   ... 1
Number of basis functions                         ... 59
Highest angular momentum                          ... 4
Number of primitive shells                        ... 54
Total number of shells                            ... 17
Maximum number of shells                          ... 17

Getting memory                                    ... done
Making prescreening integrals                     ... done
Gathering atom contracted prescreening            ... done
Making one-electron integrals                     ... done

Timings:

Total time                                        ...    0.5 sec
Prescreening matrix                               ...    0.5 sec
One-electron matrix                               ...    0.0 sec
Two-index integrals + Cholesky                    ...    0.0 sec


           ************************************************************
           *        Program running with 18 parallel MPI-processes    *
           *              working on a common directory               *
           ************************************************************
------------------------------------------------------------------------------
                          ORCA RELATIVISTIC HAMILTONIAN
------------------------------------------------------------------------------

Relativistic Method            ... ZORA(MP)
Treatment of potential         ... Van Wuellen
Nucleus model                  ... Point Nucleus
Speed of light used            ...  34.25899725000000


            *************************************************
            *         ZERO ORDER REGULAR APPROXIMATION      *
            *                     ZORA(MP)                  *
            *            Programmed by FN according to      *
            *                   C. van Wuellen              *
            *       J. Chem. Phys. (1998) vol 109, 392-399  *
            *************************************************

Terms included in model potential: +V(e,N)
Basis function cutoff value   ... 1.000000e-12
Loading the fitted atomic densities  (DKH4)  ... done
Calculating the cutoffs                      ... done
Number of fit functions                      ... 27
Setting up the integration grid ... done


           ************************************************************
           *        Program running with 18 parallel MPI-processes    *
           *              working on a common directory               *
           ************************************************************
-------------------------------------------------------------------------------
                                 ORCA SCF
-------------------------------------------------------------------------------

------------
SCF SETTINGS
------------
Hamiltonian:
 Density Functional     Method          .... DFT(GTOs)
 Exchange Functional    Exchange        .... Slater
   X-Alpha parameter    XAlpha          ....  0.666667
 Correlation Functional Correlation     .... VWN-5
 Gradients option       PostSCFGGA      .... off
   Density functional embedding theory  .... OFF

Relativistic Settings:
 Scalar relativistic method             .... ZORA
 Speed of light used       Velit        ....       34.2589973
Orbital energies will be scaled


General Settings:
 Integral files         IntName         .... Kr_ano-rcc-tzp_34.25899725_
 Hartree-Fock type      HFTyp           .... RHF
 Total Charge           Charge          ....   34
 Multiplicity           Mult            ....    1
 Number of Electrons    NEL             ....    2
 Basis Dimension        Dim             ....   59
 Nuclear Repulsion      ENuc            ....      0.0000000000 Eh

Convergence Acceleration:
 DIIS                   CNVDIIS         .... on
   Start iteration      DIISMaxIt       ....    12
   Startup error        DIISStart       ....  0.200000
   # of expansion vecs  DIISMaxEq       ....     5
   Bias factor          DIISBfac        ....   1.050
   Max. coefficient     DIISMaxC        ....  10.000
 Newton-Raphson         CNVNR           .... off
 SOSCF                  CNVSOSCF        .... on
   Start iteration      SOSCFMaxIt      ....   150
   Startup grad/error   SOSCFStart      ....  0.003300
 Level Shifting         CNVShift        .... on
   Level shift para.    LevelShift      ....    0.2500
   Turn off err/grad.   ShiftErr        ....    0.0010
 Zerner damping         CNVZerner       .... off
 Static damping         CNVDamp         .... on
   Fraction old density DampFac         ....    0.7000
   Max. Damping (<1)    DampMax         ....    0.9800
   Min. Damping (>=0)   DampMin         ....    0.0000
   Turn off err/grad.   DampErr         ....    0.1000
 Fernandez-Rico         CNVRico         .... off

SCF Procedure:
 Maximum # iterations   MaxIter         ....   125
 SCF integral mode      SCFMode         .... Direct
   Integral package                     .... LIBINT
 Reset frequency        DirectResetFreq ....    20
 Integral Threshold     Thresh          ....  1.000e-12 Eh
 Primitive CutOff       TCut            ....  1.000e-14 Eh

Convergence Tolerance:
 Convergence Check Mode ConvCheckMode   .... Total+1el-Energy
 Convergence forced     ConvForced      .... 0
 Energy Change          TolE            ....  1.000e-09 Eh
 1-El. energy change                    ....  1.000e-06 Eh
 Orbital Gradient       TolG            ....  2.000e-06
 Orbital Rotation angle TolX            ....  2.000e-06
 DIIS Error             TolErr          ....  1.000e-08


Diagonalization of the overlap matrix:
Smallest eigenvalue                        ... 1.000e+00
Time for diagonalization                   ...    0.002 sec
Threshold for overlap eigenvalues          ... 1.000e-08
Number of eigenvalues below threshold      ... 0
Time for construction of square roots      ...    0.001 sec
Total time needed                          ...    0.003 sec

-------------------
DFT GRID GENERATION
-------------------

General Integration Accuracy     IntAcc      ...  5.010
Radial Grid Type                 RadialGrid  ... Gauss-Chebyshev
Angular Grid (max. acc.)         AngularGrid ... Lebedev-434
Angular grid pruning method      GridPruning ... 3 (G Style)
Weight generation scheme         WeightScheme... Becke
Basis function cutoff            BFCut       ...    1.0000e-12
Integration weight cutoff        WCut        ...    1.0000e-14
Grids for H and He will be reduced by one unit

# of grid points (after initial pruning)     ...  16106 (   0.0 sec)
# of grid points (after weights+screening)   ...  16106 (   0.0 sec)
Grid point division into batches done        ...    0.2 sec
Reduced shell lists constructed in    0.2 sec

Total number of grid points                  ...    16106
Total number of batches                      ...      252
Average number of points per batch           ...       63
Average number of grid points per atom       ...    16106
Average number of shells per batch           ...    11.87 (69.80%)
Average number of basis functions per batch  ...    37.47 (63.50%)
Average number of large shells per batch     ...     4.40 (37.08%)
Average number of large basis fcns per batch ...    12.40 (33.10%)
Maximum spatial batch extension              ...  17.34, 17.34, 17.34 au
Average spatial batch extension              ...   0.86,  0.87,  0.87 au

Time for grid setup =    0.250 sec

------------------------------
INITIAL GUESS: MODEL POTENTIAL
------------------------------
Loading ZORA relativistic densities                ... done
Calculating cut-offs                               ... done
Setting up the integral package                    ... done
Initializing the effective Hamiltonian             ... done
Starting the Coulomb interaction                   ... done (   0.0 sec)
Reading the grid                                   ... done
Mapping shells                                     ... done
Starting the XC term evaluation                    ... done (   0.0 sec)
  promolecular density results
     # of electrons  =     36.000000565
     EX              =    -91.042004939
     EC              =     -3.295965580
     EX+EC           =    -94.337970520
Transforming the Hamiltonian                       ... done (   0.0 sec)
Diagonalizing the Hamiltonian                      ... done (   0.0 sec)
Back transforming the eigenvectors                 ... done (   0.0 sec)
Now organizing SCF variables                       ... done
                      ------------------
                      INITIAL GUESS DONE (   0.3 sec)
                      ------------------
--------------
SCF ITERATIONS
--------------
ITER       Energy         Delta-E        Max-DP      RMS-DP      [F,P]     Damp
               ***  Starting incremental Fock matrix formation  ***
  0  -1784.5266977428   0.000000000000 0.00057122  0.00001567  1.6021059 0.7000
                      *** Initiating the SOSCF procedure ***
                      *** Re-Reading the Fockian *** 
                      *** Removing any level shift *** 
ITER      Energy       Delta-E        Grad      Rot      Max-DP    RMS-DP
  1  -1784.52784164  -0.0011438982  0.000288  0.000288  0.001333  0.000037
               *** Restarting incremental Fock matrix formation ***
  2  -1784.53051064  -0.0026689967  0.000100  0.000000  0.000000  0.000000
                 **** Energy Check signals convergence ****
              ***Rediagonalizing the Fockian in SOSCF/NRSCF***

               *****************************************************
               *                     SUCCESS                       *
               *           SCF CONVERGED AFTER   3 CYCLES          *
               *****************************************************

Setting up the final grid:

General Integration Accuracy     IntAcc      ...  5.340
Radial Grid Type                 RadialGrid  ... Gauss-Chebyshev
Angular Grid (max. acc.)         AngularGrid ... Lebedev-590
Angular grid pruning method      GridPruning ... 3 (G Style)
Weight generation scheme         WeightScheme... Becke
Basis function cutoff            BFCut       ...    1.0000e-12
Integration weight cutoff        WCut        ...    1.0000e-14
Grids for H and He will be reduced by one unit

# of grid points (after initial pruning)     ...  24180 (   0.0 sec)
# of grid points (after weights+screening)   ...  24180 (   0.0 sec)
Grid point division into batches done        ...    0.4 sec
Reduced shell lists constructed in    0.4 sec

Total number of grid points                  ...    24180
Total number of batches                      ...      378
Average number of points per batch           ...       63
Average number of grid points per atom       ...    24180
Average number of shells per batch           ...     7.77 (45.72%)
Average number of basis functions per batch  ...    23.86 (40.45%)
Average number of large shells per batch     ...     3.55 (45.61%)
Average number of large basis fcns per batch ...     9.82 (41.14%)
Maximum spatial batch extension              ...  17.58, 17.58, 17.58 au
Average spatial batch extension              ...   0.77,  0.77,  0.77 au

Final grid set up in    0.4 sec
Final integration                            ... done (   0.0 sec)
Change in XC energy                          ...    -0.000078669
Integrated number of electrons               ...     2.000000083
Previous integrated no of electrons          ...     1.999999376

----------------
TOTAL SCF ENERGY
----------------

Total Energy       :        -1784.53058931 Eh          -48559.54605 eV

Components:
Nuclear Repulsion  :            0.00000000 Eh               0.00000 eV
Electronic Energy  :        -1784.53058931 Eh          -48559.54605 eV
One Electron Energy:        -1812.00833369 Eh          -49307.25349 eV
Two Electron Energy:           27.47774438 Eh             747.70744 eV

Virial components:
Potential Energy   :        -2817.87555604 Eh          -76678.29213 eV
Kinetic Energy     :         1033.34496673 Eh           28118.74607 eV
Virial Ratio       :            2.72694564


DFT components:
N(Alpha)           :        1.000000041446 electrons
N(Beta)            :        1.000000041446 electrons
N(Total)           :        2.000000082892 electrons
E(X)               :      -20.933115053677 Eh       
E(C)               :       -0.283196870818 Eh       
E(XC)              :      -21.216311924495 Eh       
DFET-embed. en.    :        0.000000000000 Eh       

---------------
SCF CONVERGENCE
---------------

  Last Energy change         ...   -2.8876e-11  Tolerance :   1.0000e-09
  Last MAX-Density change    ...    2.9623e-11  Tolerance :   1.0000e-08
  Last RMS-Density change    ...    6.3764e-13  Tolerance :   1.0000e-09
  Last Orbital Gradient      ...    1.4008e-08  Tolerance :   2.0000e-06
  Last Orbital Rotation      ...    1.7401e-11  Tolerance :   2.0000e-06

================================================================================
                                        WARNING
Number of found core electrons (2) does not match given number of chemical core electrons (18)
================================================================================
             **** THE GBW FILE WAS UPDATED (Kr_ano-rcc-tzp_34.25899725_.gbw) ****
             **** DENSITY FILE WAS UPDATED (Kr_ano-rcc-tzp_34.25899725_.scfp) ****
             **** ENERGY FILE WAS UPDATED (Kr_ano-rcc-tzp_34.25899725_.en.tmp) ****
             **** THE GBW FILE WAS UPDATED (Kr_ano-rcc-tzp_34.25899725_.gbw) ****
             **** DENSITY FILE WAS UPDATED (Kr_ano-rcc-tzp_34.25899725_.scfp) ****
----------------
ORBITAL ENERGIES
----------------

  NO   OCC          E(Eh)            E(eV) 
   0   2.0000    -871.416924    -23712.4600 
   1   0.0000    -177.843903     -4839.3786 
   2   0.0000    -168.687655     -4590.2245 
   3   0.0000    -168.687655     -4590.2245 
   4   0.0000    -168.687655     -4590.2245 
   5   0.0000     -66.383344     -1806.3826 
   6   0.0000     -62.519931     -1701.2538 
   7   0.0000     -62.519931     -1701.2538 
   8   0.0000     -62.519931     -1701.2538 
   9   0.0000     -57.501966     -1564.7080 
  10   0.0000     -57.501966     -1564.7080 
  11   0.0000     -57.501966     -1564.7080 
  12   0.0000     -57.501966     -1564.7080 
  13   0.0000     -57.501966     -1564.7080 
  14   0.0000     -30.833166      -839.0131 
  15   0.0000     -27.539656      -749.3921 
  16   0.0000     -27.539656      -749.3921 
  17   0.0000     -27.539656      -749.3921 
  18   0.0000     -22.479975      -611.7112 
  19   0.0000     -22.479975      -611.7112 
  20   0.0000     -22.479975      -611.7112 
  21   0.0000     -22.479975      -611.7112 
  22   0.0000     -22.479975      -611.7112 
  23   0.0000     -20.297200      -552.3149 
  24   0.0000     -20.297200      -552.3149 
  25   0.0000     -20.297200      -552.3149 
  26   0.0000     -20.297200      -552.3149 
  27   0.0000     -20.297200      -552.3149 
  28   0.0000     -20.297200      -552.3149 
  29   0.0000     -20.297200      -552.3149 
  30   0.0000     -17.201400      -468.0739 
  31   0.0000     -14.859680      -404.3525 
  32   0.0000     -14.859680      -404.3525 
  33   0.0000     -14.859680      -404.3525 
  34   0.0000     -14.801708      -402.7749 
  35   0.0000     -14.801708      -402.7749 
  36   0.0000     -14.801708      -402.7749 
  37   0.0000     -14.801708      -402.7749 
  38   0.0000     -14.801708      -402.7749 
  39   0.0000     -14.801708      -402.7749 
  40   0.0000     -14.801708      -402.7749 
  41   0.0000     -14.801708      -402.7749 
  42   0.0000     -14.801708      -402.7749 
  43   0.0000     -12.074251      -328.5571 
  44   0.0000     -12.074251      -328.5571 
  45   0.0000     -12.074251      -328.5571 
  46   0.0000     -12.074251      -328.5571 
  47   0.0000     -12.074251      -328.5571 
  48   0.0000     -11.800618      -321.1111 
  49   0.0000     -11.800618      -321.1111 
  50   0.0000     -11.800618      -321.1111 
  51   0.0000     -11.800618      -321.1111 
  52   0.0000     -11.800618      -321.1111 
  53   0.0000     -11.800618      -321.1111 
  54   0.0000     -11.800618      -321.1111 
  55   0.0000     -10.334525      -281.2167 
  56   0.0000      -8.593638      -233.8448 
  57   0.0000      -8.593638      -233.8448 
  58   0.0000      -8.593638      -233.8448 

                    ********************************
                    * MULLIKEN POPULATION ANALYSIS *
                    ********************************

-----------------------
MULLIKEN ATOMIC CHARGES
-----------------------
   0 Kr:   34.000000
Sum of atomic charges:   34.0000000

--------------------------------
MULLIKEN REDUCED ORBITAL CHARGES
--------------------------------
  0 Krs       :     2.000000  s :     2.000000
      pz      :     0.000000  p :     0.000000
      px      :     0.000000
      py      :     0.000000
      dz2     :     0.000000  d :     0.000000
      dxz     :     0.000000
      dyz     :     0.000000
      dx2y2   :     0.000000
      dxy     :     0.000000
      f0      :     0.000000  f :     0.000000
      f+1     :     0.000000
      f-1     :     0.000000
      f+2     :     0.000000
      f-2     :     0.000000
      f+3     :     0.000000
      f-3     :     0.000000
      g0      :     0.000000  g :     0.000000
      g+1     :     0.000000
      g-1     :     0.000000
      g+2     :     0.000000
      g-2     :     0.000000
      g+3     :     0.000000
      g-3     :     0.000000
      g+4     :     0.000000
      g-4     :     0.000000


                     *******************************
                     * LOEWDIN POPULATION ANALYSIS *
                     *******************************

----------------------
LOEWDIN ATOMIC CHARGES
----------------------
   0 Kr:   34.000000

-------------------------------
LOEWDIN REDUCED ORBITAL CHARGES
-------------------------------
  0 Krs       :     2.000000  s :     2.000000
      pz      :     0.000000  p :     0.000000
      px      :     0.000000
      py      :     0.000000
      dz2     :     0.000000  d :     0.000000
      dxz     :     0.000000
      dyz     :     0.000000
      dx2y2   :     0.000000
      dxy     :     0.000000
      f0      :     0.000000  f :     0.000000
      f+1     :     0.000000
      f-1     :     0.000000
      f+2     :     0.000000
      f-2     :     0.000000
      f+3     :     0.000000
      f-3     :     0.000000
      g0      :     0.000000  g :     0.000000
      g+1     :     0.000000
      g-1     :     0.000000
      g+2     :     0.000000
      g-2     :     0.000000
      g+3     :     0.000000
      g-3     :     0.000000
      g+4     :     0.000000
      g-4     :     0.000000


                      *****************************
                      * MAYER POPULATION ANALYSIS *
                      *****************************

  NA   - Mulliken gross atomic population
  ZA   - Total nuclear charge
  QA   - Mulliken gross atomic charge
  VA   - Mayer's total valence
  BVA  - Mayer's bonded valence
  FA   - Mayer's free valence

  ATOM       NA         ZA         QA         VA         BVA        FA
  0 Kr     2.0000    36.0000    34.0000    -0.0000     0.0000    -0.0000

  Mayer bond orders larger than 0.100000


--------------------------
ATOM BASIS FOR ELEMENT Kr
--------------------------
 NewGTO Kr
 S 120
    1   18535881.300000000745         0.000135957748
    2    2419299.990000000224         0.000438695350
    3     474949.065000000002         0.001282155999
    4     117392.346000000005         0.003423827065
    5      34065.440100000000         0.008889940240
    6      11133.885300000000         0.023032515443
    7       3988.280760000000         0.059243668029
    8       1534.678610000000         0.142662763645
    9        624.475513000000         0.284749231138
   10        265.735250000000         0.378604687402
   11        116.709586000000         0.225090553468
   12         50.306071000000         0.026828672344
   13         23.036081700000         0.000588163751
   14         10.586238100000        -0.000546651899
   15          4.798113940000         0.000376793795
   16          2.133543170000        -0.000268946122
   17          0.857316380000         0.000149983093
   18          0.378404470000        -0.000083172172
   19          0.152386050000         0.000035434533
   20          0.060954420000        -0.000009709854
   21   18535881.300000000745         0.000005820414
   22    2419299.990000000224         0.000018800994
   23     474949.065000000002         0.000055055387
   24     117392.346000000005         0.000147551993
   25      34065.440100000000         0.000385811203
   26      11133.885300000000         0.001012553281
   27       3988.280760000000         0.002676016493
   28       1534.678610000000         0.006821126016
   29        624.475513000000         0.015464020559
   30        265.735250000000         0.026761145237
   31        116.709586000000         0.021410062496
   32         50.306071000000        -0.036056307763
   33         23.036081700000        -0.085007240472
   34         10.586238100000        -0.032931139120
   35          4.798113940000        -0.001347530955
   36          2.133543170000        -0.000368734243
   37          0.857316380000         0.000120904616
   38          0.378404470000        -0.000055989947
   39          0.152386050000         0.000026033051
   40          0.060954420000        -0.000006788958
   41   18535881.300000000745         0.000000851619
   42    2419299.990000000224         0.000002751020
   43     474949.065000000002         0.000008058797
   44     117392.346000000005         0.000021607758
   45      34065.440100000000         0.000056553592
   46      11133.885300000000         0.000148666679
   47       3988.280760000000         0.000394318674
   48       1534.678610000000         0.001012797952
   49        624.475513000000         0.002336279211
   50        265.735250000000         0.004200376203
   51        116.709586000000         0.003593695152
   52         50.306071000000        -0.007497562544
   53         23.036081700000        -0.025332809062
   54         10.586238100000        -0.010192222860
   55          4.798113940000         0.033095908173
   56          2.133543170000         0.028168383140
   57          0.857316380000         0.001533824544
   58          0.378404470000         0.000284579018
   59          0.152386050000        -0.000117689209
   60          0.060954420000         0.000039250477
   61   18535881.300000000745         0.000000086608
   62    2419299.990000000224         0.000000279754
   63     474949.065000000002         0.000000819334
   64     117392.346000000005         0.000002196827
   65      34065.440100000000         0.000005750920
   66      11133.885300000000         0.000015121262
   67       3988.280760000000         0.000040130720
   68       1534.678610000000         0.000103196192
   69        624.475513000000         0.000238707218
   70        265.735250000000         0.000431738678
   71        116.709586000000         0.000373704887
   72         50.306071000000        -0.000806606935
   73         23.036081700000        -0.002891025505
   74         10.586238100000        -0.001201961232
   75          4.798113940000         0.004998370286
   76          2.133543170000         0.007793741125
   77          0.857316380000        -0.003192888999
   78          0.378404470000        -0.011700093888
   79          0.152386050000        -0.004422235726
   80          0.060954420000         0.000013708706
   81   18535881.300000000745         0.000000113073
   82    2419299.990000000224         0.000000365483
   83     474949.065000000002         0.000001068308
   84     117392.346000000005         0.000002879180
   85      34065.440100000000         0.000007462469
   86      11133.885300000000         0.000019963930
   87       3988.280760000000         0.000051619902
   88       1534.678610000000         0.000137771886
   89        624.475513000000         0.000303209619
   90        265.735250000000         0.000594151599
   91        116.709586000000         0.000416542073
   92         50.306071000000        -0.000883556947
   93         23.036081700000        -0.004468627621
   94         10.586238100000        -0.000249200349
   95          4.798113940000         0.005076596112
   96          2.133543170000         0.018602322585
   97          0.857316380000        -0.031203218805
   98          0.378404470000        -0.006401436945
   99          0.152386050000         0.023002388645
  100          0.060954420000         0.000530265421
  101   18535881.300000000745         0.000000180447
  102    2419299.990000000224         0.000000581964
  103     474949.065000000002         0.000001713821
  104     117392.346000000005         0.000004543251
  105      34065.440100000000         0.000012162443
  106      11133.885300000000         0.000030792979
  107       3988.280760000000         0.000086584957
  108       1534.678610000000         0.000205821243
  109        624.475513000000         0.000532049541
  110        265.735250000000         0.000820780303
  111        116.709586000000         0.001029507516
  112         50.306071000000        -0.002519325678
  113         23.036081700000        -0.005063513095
  114         10.586238100000        -0.005384517830
  115          4.798113940000         0.023401372934
  116          2.133543170000         0.012406716223
  117          0.857316380000        -0.086047983138
  118          0.378404470000         0.096085522462
  119          0.152386050000        -0.032380092756
  120          0.060954420000        -0.009605164221
 S 120
    1   18535881.300000000745        -0.000019027719
    2    2419299.990000000224        -0.000061396809
    3     474949.065000000002        -0.000179441810
    4     117392.346000000005        -0.000479175487
    5      34065.440100000000        -0.001244175411
    6      11133.885300000000        -0.003223473791
    7       3988.280760000000        -0.008291339765
    8       1534.678610000000        -0.019966107512
    9        624.475513000000        -0.039851560544
   10        265.735250000000        -0.052986930156
   11        116.709586000000        -0.031502138860
   12         50.306071000000        -0.003754758023
   13         23.036081700000        -0.000082315388
   14         10.586238100000         0.000076505672
   15          4.798113940000        -0.000052733490
   16          2.133543170000         0.000037639865
   17          0.857316380000        -0.000020990611
   18          0.378404470000         0.000011640210
   19          0.152386050000        -0.000004959176
   20          0.060954420000         0.000001358925
   21   18535881.300000000745         0.000043454671
   22    2419299.990000000224         0.000140366492
   23     474949.065000000002         0.000411038446
   24     117392.346000000005         0.001101609578
   25      34065.440100000000         0.002880430879
   26      11133.885300000000         0.007559629467
   27       3988.280760000000         0.019978892479
   28       1534.678610000000         0.050925898114
   29        624.475513000000         0.115452952128
   30        265.735250000000         0.199796243679
   31        116.709586000000         0.159845553161
   32         50.306071000000        -0.269193070336
   33         23.036081700000        -0.634656221975
   34         10.586238100000        -0.245860849300
   35          4.798113940000        -0.010060541907
   36          2.133543170000        -0.002752935870
   37          0.857316380000         0.000902662715
   38          0.378404470000        -0.000418015785
   39          0.152386050000         0.000194360360
   40          0.060954420000        -0.000050685731
   41   18535881.300000000745         0.000002662822
   42    2419299.990000000224         0.000008601821
   43     474949.065000000002         0.000025198050
   44     117392.346000000005         0.000067562615
   45      34065.440100000000         0.000176830400
   46      11133.885300000000         0.000464847363
   47       3988.280760000000         0.001232946061
   48       1534.678610000000         0.003166792060
   49        624.475513000000         0.007305021146
   50        265.735250000000         0.013133634386
   51        116.709586000000         0.011236678795
   52         50.306071000000        -0.023443196626
   53         23.036081700000        -0.079210012646
   54         10.586238100000        -0.031868795114
   55          4.798113940000         0.103483482565
   56          2.133543170000         0.088076216866
   57          0.857316380000         0.004795925365
   58          0.378404470000         0.000889814769
   59          0.152386050000        -0.000367987764
   60          0.060954420000         0.000122727438
   61   18535881.300000000745         0.000000238465
   62    2419299.990000000224         0.000000770268
   63     474949.065000000002         0.000002255931
   64     117392.346000000005         0.000006048685
   65      34065.440100000000         0.000015834427
   66      11133.885300000000         0.000041634477
   67       3988.280760000000         0.000110494844
   68       1534.678610000000         0.000284137614
   69        624.475513000000         0.000657250022
   70        265.735250000000         0.001188737643
   71        116.709586000000         0.001028948965
   72         50.306071000000        -0.002220889799
   73         23.036081700000        -0.007960071725
   74         10.586238100000        -0.003309447667
   75          4.798113940000         0.013762378061
   76          2.133543170000         0.021459076808
   77          0.857316380000        -0.008791214535
   78          0.378404470000        -0.032214723245
   79          0.152386050000        -0.012176064688
   80          0.060954420000         0.000037745182
   81   18535881.300000000745         0.000000298326
   82    2419299.990000000224         0.000000964271
   83     474949.065000000002         0.000002818570
   84     117392.346000000005         0.000007596281
   85      34065.440100000000         0.000019688596
   86      11133.885300000000         0.000052671810
   87       3988.280760000000         0.000136191307
   88       1534.678610000000         0.000363490293
   89        624.475513000000         0.000799972741
   90        265.735250000000         0.001567579169
   91        116.709586000000         0.001098983287
   92         50.306071000000        -0.002331131427
   93         23.036081700000        -0.011789798408
   94         10.586238100000        -0.000657477448
   95          4.798113940000         0.013393831358
   96          2.133543170000         0.049079415827
   97          0.857316380000        -0.082324975489
   98          0.378404470000        -0.016889223604
   99          0.152386050000         0.060688324918
  100          0.060954420000         0.001399025148
  101   18535881.300000000745         0.000000441953
  102    2419299.990000000224         0.000001425349
  103     474949.065000000002         0.000004197502
  104     117392.346000000005         0.000011127360
  105      34065.440100000000         0.000029788336
  106      11133.885300000000         0.000075418368
  107       3988.280760000000         0.000212064447
  108       1534.678610000000         0.000504098746
  109        624.475513000000         0.001303099246
  110        265.735250000000         0.002010260536
  111        116.709586000000         0.002521476604
  112         50.306071000000        -0.006170349079
  113         23.036081700000        -0.012401589692
  114         10.586238100000        -0.013187796607
  115          4.798113940000         0.057314797043
  116          2.133543170000         0.030386611260
  117          0.857316380000        -0.210749288232
  118          0.378404470000         0.235333295796
  119          0.152386050000        -0.079305536892
  120          0.060954420000        -0.023525031606
 S 119
    1   18535881.300000000745        -0.000004340269
    2    2419299.990000000224        -0.000014004762
    3     474949.065000000002        -0.000040931115
    4     117392.346000000005        -0.000109301100
    5      34065.440100000000        -0.000283799452
    6      11133.885300000000        -0.000735282250
    7       3988.280760000000        -0.001891274864
    8       1534.678610000000        -0.004554317919
    9        624.475513000000        -0.009090238354
   10        265.735250000000        -0.012086448264
   11        116.709586000000        -0.007185714862
   12         50.306071000000        -0.000856469481
   13         23.036081700000        -0.000018776341
   14         10.586238100000         0.000017451131
   15          4.798113940000        -0.000012028638
   16          2.133543170000         0.000008585745
   17          0.857316380000        -0.000004788010
   18          0.378404470000         0.000002655160
   19          0.152386050000        -0.000001131200
   20   18535881.300000000745        -0.000007643171
   21    2419299.990000000224        -0.000024688831
   22     474949.065000000002        -0.000072296875
   23     117392.346000000005        -0.000193760294
   24      34065.440100000000        -0.000506634243
   25      11133.885300000000        -0.001329650775
   26       3988.280760000000        -0.003514054489
   27       1534.678610000000        -0.008957272334
   28        624.475513000000        -0.020306829575
   29        265.735250000000        -0.035141832195
   30        116.709586000000        -0.028114971047
   31         50.306071000000         0.047347925724
   32         23.036081700000         0.111628637472
   33         10.586238100000         0.043244059799
   34          4.798113940000         0.001769532144
   35          2.133543170000         0.000484209356
   36          0.857316380000        -0.000158767858
   37          0.378404470000         0.000073524108
   38          0.152386050000        -0.000034185724
   39          0.060954420000         0.000008915030
   40   18535881.300000000745         0.000016833557
   41    2419299.990000000224         0.000054378117
   42     474949.065000000002         0.000159294460
   43     117392.346000000005         0.000427110441
   44      34065.440100000000         0.001117868375
   45      11133.885300000000         0.002938624611
   46       3988.280760000000         0.007794312556
   47       1534.678610000000         0.020019502796
   48        624.475513000000         0.046180137019
   49        265.735250000000         0.083026869246
   50        116.709586000000         0.071034889024
   51         50.306071000000        -0.148200807463
   52         23.036081700000        -0.500741772581
   53         10.586238100000        -0.201464895943
   54          4.798113940000         0.654191317000
   55          2.133543170000         0.556791237397
   56          0.857316380000         0.030318391430
   57          0.378404470000         0.005625140178
   58          0.152386050000        -0.002326307485
   59          0.060954420000         0.000775845792
   60   18535881.300000000745         0.000001018964
   61    2419299.990000000224         0.000003291360
   62     474949.065000000002         0.000009639613
   63     117392.346000000005         0.000025846079
   64      34065.440100000000         0.000067660632
   65      11133.885300000000         0.000177904447
   66       3988.280760000000         0.000472145340
   67       1534.678610000000         0.001214122268
   68        624.475513000000         0.002808434528
   69        265.735250000000         0.005079485328
   70        116.709586000000         0.004396707046
   71         50.306071000000        -0.009489879637
   72         23.036081700000        -0.034013449293
   73         10.586238100000        -0.014141295996
   74          4.798113940000         0.058806750052
   75          2.133543170000         0.091694804529
   76          0.857316380000        -0.037564929075
   77          0.378404470000        -0.137653766624
   78          0.152386050000        -0.052028420489
   79          0.060954420000         0.000161285459
   80   18535881.300000000745         0.000001139191
   81    2419299.990000000224         0.000003682183
   82     474949.065000000002         0.000010763038
   83     117392.346000000005         0.000029007282
   84      34065.440100000000         0.000075183191
   85      11133.885300000000         0.000201133421
   86       3988.280760000000         0.000520062317
   87       1534.678610000000         0.001388029884
   88        624.475513000000         0.003054788784
   89        265.735250000000         0.005985983041
   90        116.709586000000         0.004196595264
   91         50.306071000000        -0.008901695981
   92         23.036081700000        -0.045020713932
   93         10.586238100000        -0.002510653963
   94          4.798113940000         0.051145899968
   95          2.133543170000         0.187415447108
   96          0.857316380000        -0.314367476253
   97          0.378404470000        -0.064493461051
   98          0.152386050000         0.231745414186
   99          0.060954420000         0.005342339944
  100   18535881.300000000745         0.000001399667
  101    2419299.990000000224         0.000004514094
  102     474949.065000000002         0.000013293524
  103     117392.346000000005         0.000035240443
  104      34065.440100000000         0.000094339911
  105      11133.885300000000         0.000238850604
  106       3988.280760000000         0.000671609883
  107       1534.678610000000         0.001596484955
  108        624.475513000000         0.004126926236
  109        265.735250000000         0.006366511969
  110        116.709586000000         0.007985537541
  111         50.306071000000        -0.019541547254
  112         23.036081700000        -0.039275938505
  113         10.586238100000        -0.041765862398
  114          4.798113940000         0.181516442657
  115          2.133543170000         0.096234652566
  116          0.857316380000        -0.667444762363
  117          0.378404470000         0.745302520383
  118          0.152386050000        -0.251161300087
  119          0.060954420000        -0.074503972286
 S 118
    1   18535881.300000000745         0.000001365310
    2    2419299.990000000224         0.000004405451
    3     474949.065000000002         0.000012875623
    4     117392.346000000005         0.000034382638
    5      34065.440100000000         0.000089274250
    6      11133.885300000000         0.000231296329
    7       3988.280760000000         0.000594934711
    8       1534.678610000000         0.001432643064
    9        624.475513000000         0.002859498867
   10        265.735250000000         0.003802010879
   11        116.709586000000         0.002260396560
   12         50.306071000000         0.000269417964
   13         23.036081700000         0.000005906438
   14         10.586238100000        -0.000005489569
   15          4.798113940000         0.000003783826
   16          2.133543170000        -0.000002700801
   17          0.857316380000         0.000001506155
   18          0.378404470000        -0.000000835229
   19   18535881.300000000745         0.000001383428
   20    2419299.990000000224         0.000004468725
   21     474949.065000000002         0.000013085869
   22     117392.346000000005         0.000035070975
   23      34065.440100000000         0.000091701744
   24      11133.885300000000         0.000240669272
   25       3988.280760000000         0.000636050422
   26       1534.678610000000         0.001621283012
   27        624.475513000000         0.003675574059
   28        265.735250000000         0.006360737224
   29        116.709586000000         0.005088862240
   30         50.306071000000        -0.008570062938
   31         23.036081700000        -0.020204991753
   32         10.586238100000        -0.007827255545
   33          4.798113940000        -0.000320288621
   34          2.133543170000        -0.000087642797
   35          0.857316380000         0.000028737279
   36          0.378404470000        -0.000013308001
   37          0.152386050000         0.000006187680
   38          0.060954420000        -0.000001613637
   39   18535881.300000000745         0.000005461265
   40    2419299.990000000224         0.000017641744
   41     474949.065000000002         0.000051679465
   42     117392.346000000005         0.000138566270
   43      34065.440100000000         0.000362666975
   44      11133.885300000000         0.000953369932
   45       3988.280760000000         0.002528687470
   46       1534.678610000000         0.006494872449
   47        624.475513000000         0.014982095343
   48        265.735250000000         0.026936179738
   49        116.709586000000         0.023045654447
   50         50.306071000000        -0.048080381970
   51         23.036081700000        -0.162454281500
   52         10.586238100000        -0.065360704279
   53          4.798113940000         0.212237496823
   54          2.133543170000         0.180638255824
   55          0.857316380000         0.009836112675
   56          0.378404470000         0.001824948818
   57          0.152386050000        -0.000754717565
   58          0.060954420000         0.000251705525
   59   18535881.300000000745        -0.000003671983
   60    2419299.990000000224        -0.000011860886
   61     474949.065000000002        -0.000034737721
   62     117392.346000000005        -0.000093140037
   63      34065.440100000000        -0.000243824746
   64      11133.885300000000        -0.000641104072
   65       3988.280760000000        -0.001701443132
   66       1534.678610000000        -0.004375262911
   67        624.475513000000        -0.010120594733
   68        265.735250000000        -0.018304650488
   69        116.709586000000        -0.015844161480
   70         50.306071000000         0.034198135974
   71         23.036081700000         0.122572320028
   72         10.586238100000         0.050960178826
   73          4.798113940000        -0.211918518612
   74          2.133543170000        -0.330435317769
   75          0.857316380000         0.135370584404
   76          0.378404470000         0.496054998427
   77          0.152386050000         0.187491840409
   78          0.060954420000        -0.000581215175
   79   18535881.300000000745        -0.000003711542
   80    2419299.990000000224        -0.000011996734
   81     474949.065000000002        -0.000035066514
   82     117392.346000000005        -0.000094507167
   83      34065.440100000000        -0.000244950575
   84      11133.885300000000        -0.000655302689
   85       3988.280760000000        -0.001694388897
   86       1534.678610000000        -0.004522270404
   87        624.475513000000        -0.009952653808
   88        265.735250000000        -0.019502630502
   89        116.709586000000        -0.013672716116
   90         50.306071000000         0.029002168291
   91         23.036081700000         0.146679725399
   92         10.586238100000         0.008179835494
   93          4.798113940000        -0.166635886179
   94          2.133543170000        -0.610608849042
   95          0.857316380000         1.024224874803
   96          0.378404470000         0.210122904119
   97          0.152386050000        -0.755038086829
   98          0.060954420000        -0.017405609275
   99   18535881.300000000745        -0.000003670961
  100    2419299.990000000224        -0.000011839283
  101     474949.065000000002        -0.000034865427
  102     117392.346000000005        -0.000092426437
  103      34065.440100000000        -0.000247428834
  104      11133.885300000000        -0.000626442468
  105       3988.280760000000        -0.001761456514
  106       1534.678610000000        -0.004187161171
  107        624.475513000000        -0.010823844749
  108        265.735250000000        -0.016697690534
  109        116.709586000000        -0.020943969829
  110         50.306071000000         0.051252351393
  111         23.036081700000         0.103010481997
  112         10.586238100000         0.109540899094
  113          4.798113940000        -0.476070005202
  114          2.133543170000        -0.252398244905
  115          0.857316380000         1.750532496339
  116          0.378404470000        -1.954732968336
  117          0.152386050000         0.658730193745
  118          0.060954420000         0.195404371939
 S 117
    1   18535881.300000000745         0.000000623933
    2    2419299.990000000224         0.000002013246
    3     474949.065000000002         0.000005884029
    4     117392.346000000005         0.000015712516
    5      34065.440100000000         0.000040797426
    6      11133.885300000000         0.000105700074
    7       3988.280760000000         0.000271879122
    8       1534.678610000000         0.000654703334
    9        624.475513000000         0.001306761949
   10        265.735250000000         0.001737480369
   11        116.709586000000         0.001032978277
   12         50.306071000000         0.000123121274
   13         23.036081700000         0.000002699182
   14         10.586238100000        -0.000002508677
   15          4.798113940000         0.000001729170
   16          2.133543170000        -0.000001234239
   17          0.857316380000         0.000000688298
   18          0.378404470000        -0.000000381691
   19   18535881.300000000745         0.000000563602
   20    2419299.990000000224         0.000001820537
   21     474949.065000000002         0.000005331122
   22     117392.346000000005         0.000014287750
   23      34065.440100000000         0.000037358859
   24      11133.885300000000         0.000098047528
   25       3988.280760000000         0.000259123947
   26       1534.678610000000         0.000660503066
   27        624.475513000000         0.001497411567
   28        265.735250000000         0.002591334398
   29        116.709586000000         0.002073178518
   30         50.306071000000        -0.003491403292
   31         23.036081700000        -0.008231418514
   32         10.586238100000        -0.003188787058
   33          4.798113940000        -0.000130484076
   34          2.133543170000        -0.000035705263
   35          0.857316380000         0.000011707432
   36          0.378404470000        -0.000005421617
   37          0.152386050000         0.000002520832
   38   18535881.300000000745         0.000000614715
   39    2419299.990000000224         0.000001985739
   40     474949.065000000002         0.000005816994
   41     117392.346000000005         0.000015596895
   42      34065.440100000000         0.000040821468
   43      11133.885300000000         0.000107310461
   44       3988.280760000000         0.000284626785
   45       1534.678610000000         0.000731056996
   46        624.475513000000         0.001686371165
   47        265.735250000000         0.003031912144
   48        116.709586000000         0.002593998120
   49         50.306071000000        -0.005411884514
   50         23.036081700000        -0.018285707690
   51         10.586238100000        -0.007356942038
   52          4.798113940000         0.023889261594
   53          2.133543170000         0.020332479472
   54          0.857316380000         0.001107143989
   55          0.378404470000         0.000205414596
   56          0.152386050000        -0.000084950330
   57          0.060954420000         0.000028331747
   58   18535881.300000000745         0.000004171061
   59    2419299.990000000224         0.000013472960
   60     474949.065000000002         0.000039459102
   61     117392.346000000005         0.000105799177
   62      34065.440100000000         0.000276964218
   63      11133.885300000000         0.000728239813
   64       3988.280760000000         0.001932694991
   65       1534.678610000000         0.004969927323
   66        624.475513000000         0.011496136647
   67        265.735250000000         0.020792529375
   68        116.709586000000         0.017997622692
   69         50.306071000000        -0.038846179951
   70         23.036081700000        -0.139231752409
   71         10.586238100000        -0.057886437977
   72          4.798113940000         0.240721450875
   73          2.133543170000         0.375346475780
   74          0.857316380000        -0.153769494507
   75          0.378404470000        -0.563476376284
   76          0.152386050000        -0.212974817614
   77          0.060954420000         0.000660211109
   78   18535881.300000000745        -0.000002159915
   79    2419299.990000000224        -0.000006981444
   80     474949.065000000002        -0.000020406795
   81     117392.346000000005        -0.000054998007
   82      34065.440100000000        -0.000142547850
   83      11133.885300000000        -0.000381350357
   84       3988.280760000000        -0.000986041750
   85       1534.678610000000        -0.002631714259
   86        624.475513000000        -0.005791900662
   87        265.735250000000        -0.011349465247
   88        116.709586000000        -0.007956773645
   89         50.306071000000         0.016877677147
   90         23.036081700000         0.085359584992
   91         10.586238100000         0.004760217278
   92          4.798113940000        -0.096972980079
   93          2.133543170000        -0.355340983937
   94          0.857316380000         0.596042909231
   95          0.378404470000         0.122280048208
   96          0.152386050000        -0.439390908115
   97          0.060954420000        -0.010129113483
   98   18535881.300000000745        -0.000005145993
   99    2419299.990000000224        -0.000016596436
  100     474949.065000000002        -0.000048874736
  101     117392.346000000005        -0.000129564390
  102      34065.440100000000        -0.000346848445
  103      11133.885300000000        -0.000878153901
  104       3988.280760000000        -0.002469228998
  105       1534.678610000000        -0.005869608305
  106        624.475513000000        -0.015172983898
  107        265.735250000000        -0.023407005133
  108        116.709586000000        -0.029359485870
  109         50.306071000000         0.071846106483
  110         23.036081700000         0.144401219794
  111         10.586238100000         0.153555629872
  112          4.798113940000        -0.667360137780
  113          2.133543170000        -0.353814618973
  114          0.857316380000         2.453915590521
  115          0.378404470000        -2.740166044524
  116          0.152386050000         0.923415186955
  117          0.060954420000         0.273919984781
 S 116
    1   18535881.300000000745         0.000000338588
    2    2419299.990000000224         0.000001092522
    3     474949.065000000002         0.000003193066
    4     117392.346000000005         0.000008526659
    5      34065.440100000000         0.000022139404
    6      11133.885300000000         0.000057359908
    7       3988.280760000000         0.000147539741
    8       1534.678610000000         0.000355285685
    9        624.475513000000         0.000709136168
   10        265.735250000000         0.000942872704
   11        116.709586000000         0.000560562893
   12         50.306071000000         0.000066813813
   13         23.036081700000         0.000001464756
   14         10.586238100000        -0.000001361376
   15          4.798113940000         0.000000938363
   16          2.133543170000        -0.000000669780
   17          0.857316380000         0.000000373516
   18   18535881.300000000745         0.000000292666
   19    2419299.990000000224         0.000000945364
   20     474949.065000000002         0.000002768332
   21     117392.346000000005         0.000007419308
   22      34065.440100000000         0.000019399617
   23      11133.885300000000         0.000050913883
   24       3988.280760000000         0.000134557255
   25       1534.678610000000         0.000342984429
   26        624.475513000000         0.000777572245
   27        265.735250000000         0.001345621838
   28        116.709586000000         0.001076555110
   29         50.306071000000        -0.001813007429
   30         23.036081700000        -0.004274391031
   31         10.586238100000        -0.001655865605
   32          4.798113940000        -0.000067757455
   33          2.133543170000        -0.000018540942
   34          0.857316380000         0.000006079407
   35          0.378404470000        -0.000002815324
   36          0.152386050000         0.000001309011
   37   18535881.300000000745         0.000000311579
   38    2419299.990000000224         0.000001006505
   39     474949.065000000002         0.000002948442
   40     117392.346000000005         0.000007905551
   41      34065.440100000000         0.000020691055
   42      11133.885300000000         0.000054392131
   43       3988.280760000000         0.000144267923
   44       1534.678610000000         0.000370548662
   45        624.475513000000         0.000854765883
   46        265.735250000000         0.001536776193
   47        116.709586000000         0.001314812028
   48         50.306071000000        -0.002743105633
   49         23.036081700000        -0.009268421682
   50         10.586238100000        -0.003728991093
   51          4.798113940000         0.012108678203
   52          2.133543170000         0.010305862742
   53          0.857316380000         0.000561174745
   54          0.378404470000         0.000104117879
   55          0.152386050000        -0.000043058518
   56          0.060954420000         0.000014360428
   57   18535881.300000000745        -0.000001193540
   58    2419299.990000000224        -0.000003855258
   59     474949.065000000002        -0.000011291135
   60     117392.346000000005        -0.000030274202
   61      34065.440100000000        -0.000079252701
   62      11133.885300000000        -0.000208384220
   63       3988.280760000000        -0.000553036419
   64       1534.678610000000        -0.001422133768
   65        624.475513000000        -0.003289594206
   66        265.735250000000        -0.005949736530
   67        116.709586000000        -0.005149980133
   68         50.306071000000         0.011115748919
   69         23.036081700000         0.039840859596
   70         10.586238100000         0.016564076858
   71          4.798113940000        -0.068881913501
   72          2.133543170000        -0.107404568159
   73          0.857316380000         0.044000802510
   74          0.378404470000         0.161237525240
   75          0.152386050000         0.060942275446
   76          0.060954420000        -0.000188917956
   77   18535881.300000000745         0.000004910864
   78    2419299.990000000224         0.000015873275
   79     474949.065000000002         0.000046397664
   80     117392.346000000005         0.000125045557
   81      34065.440100000000         0.000324102204
   82      11133.885300000000         0.000867052651
   83       3988.280760000000         0.002241901964
   84       1534.678610000000         0.005983565472
   85        624.475513000000         0.013168685276
   86        265.735250000000         0.025804575150
   87        116.709586000000         0.018090822696
   88         50.306071000000        -0.038373727642
   89         23.036081700000        -0.194076793724
   90         10.586238100000        -0.010823010758
   91          4.798113940000         0.220481449779
   92          2.133543170000         0.807916754135
   93          0.857316380000        -1.355185791452
   94          0.378404470000        -0.278020560841
   95          0.152386050000         0.999015853303
   96          0.060954420000         0.023029937039
   97   18535881.300000000745        -0.000005393464
   98    2419299.990000000224        -0.000017394561
   99     474949.065000000002        -0.000051225128
  100     117392.346000000005        -0.000135795155
  101      34065.440100000000        -0.000363528424
  102      11133.885300000000        -0.000920384416
  103       3988.280760000000        -0.002587974485
  104       1534.678610000000        -0.006151878396
  105        624.475513000000        -0.015902654317
  106        265.735250000000        -0.024532650515
  107        116.709586000000        -0.030771386688
  108         50.306071000000         0.075301193434
  109         23.036081700000         0.151345489909
  110         10.586238100000         0.160940136548
  111          4.798113940000        -0.699453558232
  112          2.133543170000        -0.370829601868
  113          0.857316380000         2.571924653909
  114          0.378404470000        -2.871940922882
  115          0.152386050000         0.967822322128
  116          0.060954420000         0.287092826166
 P 85
    1     178109.355000000010         0.000044499726
    2      27138.037499999999         0.000231277959
    3       6512.317450000000         0.001105088069
    4       2033.629170000000         0.004902009166
    5        749.824546000000         0.019324201375
    6        308.463093000000         0.064190978666
    7        137.031449000000         0.167984360656
    8         64.114040700000         0.317027923487
    9         31.107038200000         0.369508276688
   10         15.366235600000         0.199326701267
   11          7.391254080000         0.033294525113
   12          3.530697220000         0.001258439603
   13          1.678108190000         0.000445461934
   14          0.683391650000        -0.000070204967
   15          0.276466560000         0.000014869493
   16          0.105540690000        -0.000015363825
   17          0.042216280000         0.000003796466
   18     178109.355000000010         0.000002490951
   19      27138.037499999999         0.000012957277
   20       6512.317450000000         0.000062105803
   21       2033.629170000000         0.000276476544
   22        749.824546000000         0.001102296396
   23        308.463093000000         0.003735508764
   24        137.031449000000         0.010180572992
   25         64.114040700000         0.020223738706
   26         31.107038200000         0.024602442317
   27         15.366235600000        -0.000549975867
   28          7.391254080000        -0.051118381617
   29          3.530697220000        -0.068517454230
   30          1.678108190000        -0.028944238142
   31          0.683391650000        -0.002242616699
   32          0.276466560000        -0.000019724427
   33          0.105540690000        -0.000063097307
   34          0.042216280000         0.000009904203
   35     178109.355000000010         0.000000164191
   36      27138.037499999999         0.000000852124
   37       6512.317450000000         0.000004101250
   38       2033.629170000000         0.000018171263
   39        749.824546000000         0.000073008295
   40        308.463093000000         0.000246361305
   41        137.031449000000         0.000680617965
   42         64.114040700000         0.001347607723
   43         31.107038200000         0.001683940446
   44         15.366235600000        -0.000289726468
   45          7.391254080000        -0.004148651105
   46          3.530697220000        -0.006704601407
   47          1.678108190000        -0.001174598519
   48          0.683391650000         0.013079786693
   49          0.276466560000         0.017614640040
   50          0.105540690000         0.006488557994
   51          0.042216280000         0.000035212466
   52     178109.355000000010         0.000000209856
   53      27138.037499999999         0.000001081292
   54       6512.317450000000         0.000005276277
   55       2033.629170000000         0.000022936189
   56        749.824546000000         0.000094299665
   57        308.463093000000         0.000310452727
   58        137.031449000000         0.000885100947
   59         64.114040700000         0.001683703536
   60         31.107038200000         0.002261363011
   61         15.366235600000        -0.000649585294
   62          7.391254080000        -0.005309547866
   63          3.530697220000        -0.009591306960
   64          1.678108190000        -0.000982171066
   65          0.683391650000         0.038082370105
   66          0.276466560000        -0.007885138877
   67          0.105540690000        -0.028927068425
   68          0.042216280000        -0.001288206503
   69     178109.355000000010         0.000000352257
   70      27138.037499999999         0.000001667119
   71       6512.317450000000         0.000009537108
   72       2033.629170000000         0.000032906423
   73        749.824546000000         0.000176866358
   74        308.463093000000         0.000430029580
   75        137.031449000000         0.001734666376
   76         64.114040700000         0.002015595592
   77         31.107038200000         0.005696327700
   78         15.366235600000        -0.005782755453
   79          7.391254080000        -0.000900880476
   80          3.530697220000        -0.035322848592
   81          1.678108190000         0.040949450685
   82          0.683391650000         0.038087402312
   83          0.276466560000        -0.088845751629
   84          0.105540690000         0.052806468557
   85          0.042216280000         0.005539580124
 P 84
    1     178109.355000000010        -0.000006671451
    2      27138.037499999999        -0.000034673462
    3       6512.317450000000        -0.000165676096
    4       2033.629170000000        -0.000734914947
    5        749.824546000000        -0.002897106871
    6        308.463093000000        -0.009623586595
    7        137.031449000000        -0.025184411814
    8         64.114040700000        -0.047529197066
    9         31.107038200000        -0.055397112996
   10         15.366235600000        -0.029883292174
   11          7.391254080000        -0.004991554144
   12          3.530697220000        -0.000188666737
   13          1.678108190000        -0.000066784174
   14          0.683391650000         0.000010525211
   15          0.276466560000        -0.000002229252
   16          0.105540690000         0.000002303363
   17     178109.355000000010         0.000017436609
   18      27138.037499999999         0.000090700708
   19       6512.317450000000         0.000434739513
   20       2033.629170000000         0.001935330869
   21        749.824546000000         0.007716055089
   22        308.463093000000         0.026148494638
   23        137.031449000000         0.071263829130
   24         64.114040700000         0.141565809769
   25         31.107038200000         0.172216656851
   26         15.366235600000        -0.003849821245
   27          7.391254080000        -0.357827758415
   28          3.530697220000        -0.479620955980
   29          1.678108190000        -0.202609150086
   30          0.683391650000        -0.015698276840
   31          0.276466560000        -0.000138070637
   32          0.105540690000        -0.000441680023
   33          0.042216280000         0.000069329247
   34     178109.355000000010         0.000000809420
   35      27138.037499999999         0.000004200749
   36       6512.317450000000         0.000020218086
   37       2033.629170000000         0.000089579554
   38        749.824546000000         0.000359911711
   39        308.463093000000         0.001214496502
   40        137.031449000000         0.003355267732
   41         64.114040700000         0.006643351987
   42         31.107038200000         0.008301383940
   43         15.366235600000        -0.001428275359
   44          7.391254080000        -0.020451759880
   45          3.530697220000        -0.033051923291
   46          1.678108190000        -0.005790462068
   47          0.683391650000         0.064479911661
   48          0.276466560000         0.086835547120
   49          0.105540690000         0.031986886028
   50          0.042216280000         0.000173588204
   51     178109.355000000010         0.000000951238
   52      27138.037499999999         0.000004901295
   53       6512.317450000000         0.000023916386
   54       2033.629170000000         0.000103965502
   55        749.824546000000         0.000427442928
   56        308.463093000000         0.001407224752
   57        137.031449000000         0.004011998780
   58         64.114040700000         0.007631916509
   59         31.107038200000         0.010250339999
   60         15.366235600000        -0.002944449913
   61          7.391254080000        -0.024067197792
   62          3.530697220000        -0.043475619301
   63          1.678108190000        -0.004451999665
   64          0.683391650000         0.172620335442
   65          0.276466560000        -0.035741875158
   66          0.105540690000        -0.131121047378
   67          0.042216280000        -0.005839201659
   68     178109.355000000010         0.000001350692
   69      27138.037499999999         0.000006392382
   70       6512.317450000000         0.000036568970
   71       2033.629170000000         0.000126175985
   72        749.824546000000         0.000678174185
   73        308.463093000000         0.001648900129
   74        137.031449000000         0.006651383407
   75         64.114040700000         0.007728574934
   76         31.107038200000         0.021841928836
   77         15.366235600000        -0.022173326349
   78          7.391254080000        -0.003454325010
   79          3.530697220000        -0.135441495963
   80          1.678108190000         0.157016069790
   81          0.683391650000         0.146041866730
   82          0.276466560000        -0.340669056726
   83          0.105540690000         0.202480473209
   84          0.042216280000         0.021240897859
 P 82
    1     178109.355000000010         0.000000995292
    2      27138.037499999999         0.000005172822
    3       6512.317450000000         0.000024716684
    4       2033.629170000000         0.000109639599
    5        749.824546000000         0.000432210063
    6        308.463093000000         0.001435711956
    7        137.031449000000         0.003757181462
    8         64.114040700000         0.007090728163
    9         31.107038200000         0.008264517255
   10         15.366235600000         0.004458192322
   11          7.391254080000         0.000744673921
   12          3.530697220000         0.000028146584
   13          1.678108190000         0.000009963316
   14          0.683391650000        -0.000001570222
   15     178109.355000000010         0.000005252277
   16      27138.037499999999         0.000027320981
   17       6512.317450000000         0.000130952782
   18       2033.629170000000         0.000582962793
   19        749.824546000000         0.002324239798
   20        308.463093000000         0.007876482371
   21        137.031449000000         0.021466180047
   22         64.114040700000         0.042642630884
   23         31.107038200000         0.051875317508
   24         15.366235600000        -0.001159647987
   25          7.391254080000        -0.107785326463
   26          3.530697220000        -0.144472026284
   27          1.678108190000        -0.061030182463
   28          0.683391650000        -0.004728654651
   29          0.276466560000        -0.000041589811
   30          0.105540690000        -0.000133043411
   31          0.042216280000         0.000020883443
   32     178109.355000000010        -0.000003078055
   33      27138.037499999999        -0.000015974563
   34       6512.317450000000        -0.000076885114
   35       2033.629170000000        -0.000340652134
   36        749.824546000000        -0.001368668267
   37        308.463093000000        -0.004618473839
   38        137.031449000000        -0.012759374949
   39         64.114040700000        -0.025263265316
   40         31.107038200000        -0.031568410854
   41         15.366235600000         0.005431429708
   42          7.391254080000         0.077773725832
   43          3.530697220000         0.125689487622
   44          1.678108190000         0.022019904986
   45          0.683391650000        -0.245203493523
   46          0.276466560000        -0.330217256311
   47          0.105540690000        -0.121639375721
   48          0.042216280000        -0.000660119298
   49     178109.355000000010        -0.000003362471
   50      27138.037499999999        -0.000017325275
   51       6512.317450000000        -0.000084540503
   52       2033.629170000000        -0.000367500995
   53        749.824546000000        -0.001510940642
   54        308.463093000000        -0.004974308685
   55        137.031449000000        -0.014181757633
   56         64.114040700000        -0.026977573062
   57         31.107038200000        -0.036233270622
   58         15.366235600000         0.010408147489
   59          7.391254080000         0.085073596663
   60          3.530697220000         0.153679183301
   61          1.678108190000         0.015737088593
   62          0.683391650000        -0.610184572375
   63          0.276466560000         0.126341666255
   64          0.105540690000         0.463491395836
   65          0.042216280000         0.020640620110
   66     178109.355000000010        -0.000003877613
   67      27138.037499999999        -0.000018351474
   68       6512.317450000000        -0.000104983487
   69       2033.629170000000        -0.000362230463
   70        749.824546000000        -0.001946926351
   71        308.463093000000        -0.004733720598
   72        137.031449000000        -0.019095025882
   73         64.114040700000        -0.022187465280
   74         31.107038200000        -0.062704579023
   75         15.366235600000         0.063655966680
   76          7.391254080000         0.009916797972
   77          3.530697220000         0.388830219632
   78          1.678108190000        -0.450767266474
   79          0.683391650000        -0.419262137590
   80          0.276466560000         0.978004733385
   81          0.105540690000        -0.581288077994
   82          0.042216280000        -0.060979118112
 P 81
    1     178109.355000000010        -0.000000373688
    2      27138.037499999999        -0.000001942165
    3       6512.317450000000        -0.000009280019
    4       2033.629170000000        -0.000041164807
    5        749.824546000000        -0.000162275712
    6        308.463093000000        -0.000539046170
    7        137.031449000000        -0.001410655019
    8         64.114040700000        -0.002662253972
    9         31.107038200000        -0.003102959722
   10         15.366235600000        -0.001673853509
   11          7.391254080000        -0.000279592033
   12          3.530697220000        -0.000010567794
   13          1.678108190000        -0.000003740783
   14          0.683391650000         0.000000589549
[...]
  BAS[ATNO][ 10].a[ 45] =         0.105540690000;     BAS[ATNO][ 10].d[ 45] =        -0.052341085640;
  BAS[ATNO][ 10].a[ 46] =         0.042216280000;     BAS[ATNO][ 10].d[ 46] =        -0.000284047501;
  BAS[ATNO][ 10].a[ 47] =    178109.355000000010;     BAS[ATNO][ 10].d[ 47] =         0.000004550096;
  BAS[ATNO][ 10].a[ 48] =     27138.037499999999;     BAS[ATNO][ 10].d[ 48] =         0.000023444560;
  BAS[ATNO][ 10].a[ 49] =      6512.317450000000;     BAS[ATNO][ 10].d[ 49] =         0.000114400200;
  BAS[ATNO][ 10].a[ 50] =      2033.629170000000;     BAS[ATNO][ 10].d[ 50] =         0.000497302313;
  BAS[ATNO][ 10].a[ 51] =       749.824546000000;     BAS[ATNO][ 10].d[ 51] =         0.002044604736;
  BAS[ATNO][ 10].a[ 52] =       308.463093000000;     BAS[ATNO][ 10].d[ 52] =         0.006731234048;
  BAS[ATNO][ 10].a[ 53] =       137.031449000000;     BAS[ATNO][ 10].d[ 53] =         0.019190753107;
  BAS[ATNO][ 10].a[ 54] =        64.114040700000;     BAS[ATNO][ 10].d[ 54] =         0.036506049354;
  BAS[ATNO][ 10].a[ 55] =        31.107038200000;     BAS[ATNO][ 10].d[ 55] =         0.049030858429;
  BAS[ATNO][ 10].a[ 56] =        15.366235600000;     BAS[ATNO][ 10].d[ 56] =        -0.014084304212;
  BAS[ATNO][ 10].a[ 57] =         7.391254080000;     BAS[ATNO][ 10].d[ 57] =        -0.115121583077;
  BAS[ATNO][ 10].a[ 58] =         3.530697220000;     BAS[ATNO][ 10].d[ 58] =        -0.207958656522;
  BAS[ATNO][ 10].a[ 59] =         1.678108190000;     BAS[ATNO][ 10].d[ 59] =        -0.021295426817;
  BAS[ATNO][ 10].a[ 60] =         0.683391650000;     BAS[ATNO][ 10].d[ 60] =         0.825701706473;
  BAS[ATNO][ 10].a[ 61] =         0.276466560000;     BAS[ATNO][ 10].d[ 61] =        -0.170965531002;
  BAS[ATNO][ 10].a[ 62] =         0.105540690000;     BAS[ATNO][ 10].d[ 62] =        -0.627196513651;
  BAS[ATNO][ 10].a[ 63] =         0.042216280000;     BAS[ATNO][ 10].d[ 63] =        -0.027930885209;
  BAS[ATNO][ 10].a[ 64] =    178109.355000000010;     BAS[ATNO][ 10].d[ 64] =        -0.000004696236;
  BAS[ATNO][ 10].a[ 65] =     27138.037499999999;     BAS[ATNO][ 10].d[ 65] =        -0.000022225751;
  BAS[ATNO][ 10].a[ 66] =      6512.317450000000;     BAS[ATNO][ 10].d[ 66] =        -0.000127147105;
  BAS[ATNO][ 10].a[ 67] =      2033.629170000000;     BAS[ATNO][ 10].d[ 67] =        -0.000438702847;
  BAS[ATNO][ 10].a[ 68] =       749.824546000000;     BAS[ATNO][ 10].d[ 68] =        -0.002357952247;
  BAS[ATNO][ 10].a[ 69] =       308.463093000000;     BAS[ATNO][ 10].d[ 69] =        -0.005733081334;
  BAS[ATNO][ 10].a[ 70] =       137.031449000000;     BAS[ATNO][ 10].d[ 70] =        -0.023126277562;
  BAS[ATNO][ 10].a[ 71] =        64.114040700000;     BAS[ATNO][ 10].d[ 71] =        -0.026871578160;
  BAS[ATNO][ 10].a[ 72] =        31.107038200000;     BAS[ATNO][ 10].d[ 72] =        -0.075942473597;
  BAS[ATNO][ 10].a[ 73] =        15.366235600000;     BAS[ATNO][ 10].d[ 73] =         0.077094713723;
  BAS[ATNO][ 10].a[ 74] =         7.391254080000;     BAS[ATNO][ 10].d[ 74] =         0.012010385523;
  BAS[ATNO][ 10].a[ 75] =         3.530697220000;     BAS[ATNO][ 10].d[ 75] =         0.470918219180;
  BAS[ATNO][ 10].a[ 76] =         1.678108190000;     BAS[ATNO][ 10].d[ 76] =        -0.545931122826;
  BAS[ATNO][ 10].a[ 77] =         0.683391650000;     BAS[ATNO][ 10].d[ 77] =        -0.507774779930;
  BAS[ATNO][ 10].a[ 78] =         0.276466560000;     BAS[ATNO][ 10].d[ 78] =         1.184476473643;
  BAS[ATNO][ 10].a[ 79] =         0.105540690000;     BAS[ATNO][ 10].d[ 79] =        -0.704006871633;
  BAS[ATNO][ 10].a[ 80] =         0.042216280000;     BAS[ATNO][ 10].d[ 80] =        -0.073852741528;

  // Basis function  12 L = d
  InitBFNGauss(BAS[ATNO][ 11]);
  BAS[ATNO][ 11].l  = 2;
  BAS[ATNO][ 11].ng = 33;
  BAS[ATNO][ 11].a[  0] =       624.475513000000;     BAS[ATNO][ 11].d[  0] =         0.000629350045;
  BAS[ATNO][ 11].a[  1] =       265.735250000000;     BAS[ATNO][ 11].d[  1] =         0.002194474493;
  BAS[ATNO][ 11].a[  2] =       116.709586000000;     BAS[ATNO][ 11].d[  2] =         0.013122837004;
  BAS[ATNO][ 11].a[  3] =        50.306071000000;     BAS[ATNO][ 11].d[  3] =         0.050418839021;
  BAS[ATNO][ 11].a[  4] =        23.036081700000;     BAS[ATNO][ 11].d[  4] =         0.144109652632;
  BAS[ATNO][ 11].a[  5] =        10.586238100000;     BAS[ATNO][ 11].d[  5] =         0.292362562473;
  BAS[ATNO][ 11].a[  6] =         4.798113940000;     BAS[ATNO][ 11].d[  6] =         0.373488245460;
  BAS[ATNO][ 11].a[  7] =         2.133543170000;     BAS[ATNO][ 11].d[  7] =         0.281901048013;
  BAS[ATNO][ 11].a[  8] =         0.857316380000;     BAS[ATNO][ 11].d[  8] =         0.080852338257;
  BAS[ATNO][ 11].a[  9] =         0.342926550000;     BAS[ATNO][ 11].d[  9] =         0.000339003656;
  BAS[ATNO][ 11].a[ 10] =         0.137170620000;     BAS[ATNO][ 11].d[ 10] =         0.001603707727;
  BAS[ATNO][ 11].a[ 11] =       624.475513000000;     BAS[ATNO][ 11].d[ 11] =         0.000037851843;
  BAS[ATNO][ 11].a[ 12] =       265.735250000000;     BAS[ATNO][ 11].d[ 12] =         0.000147900422;
  BAS[ATNO][ 11].a[ 13] =       116.709586000000;     BAS[ATNO][ 11].d[ 13] =         0.000802574074;
  BAS[ATNO][ 11].a[ 14] =        50.306071000000;     BAS[ATNO][ 11].d[ 14] =         0.003279326731;
  BAS[ATNO][ 11].a[ 15] =        23.036081700000;     BAS[ATNO][ 11].d[ 15] =         0.008941151622;
  BAS[ATNO][ 11].a[ 16] =        10.586238100000;     BAS[ATNO][ 11].d[ 16] =         0.019884691946;
  BAS[ATNO][ 11].a[ 17] =         4.798113940000;     BAS[ATNO][ 11].d[ 17] =         0.023290633221;
  BAS[ATNO][ 11].a[ 18] =         2.133543170000;     BAS[ATNO][ 11].d[ 18] =         0.021861915660;
  BAS[ATNO][ 11].a[ 19] =         0.857316380000;     BAS[ATNO][ 11].d[ 19] =        -0.087415093868;
  BAS[ATNO][ 11].a[ 20] =         0.342926550000;     BAS[ATNO][ 11].d[ 20] =        -0.120553617718;
  BAS[ATNO][ 11].a[ 21] =         0.137170620000;     BAS[ATNO][ 11].d[ 21] =        -0.018876812530;
  BAS[ATNO][ 11].a[ 22] =       624.475513000000;     BAS[ATNO][ 11].d[ 22] =         0.000054863726;
  BAS[ATNO][ 11].a[ 23] =       265.735250000000;     BAS[ATNO][ 11].d[ 23] =         0.000078038952;
  BAS[ATNO][ 11].a[ 24] =       116.709586000000;     BAS[ATNO][ 11].d[ 24] =         0.001040245757;
  BAS[ATNO][ 11].a[ 25] =        50.306071000000;     BAS[ATNO][ 11].d[ 25] =         0.002613602686;
  BAS[ATNO][ 11].a[ 26] =        23.036081700000;     BAS[ATNO][ 11].d[ 26] =         0.010925240610;
  BAS[ATNO][ 11].a[ 27] =        10.586238100000;     BAS[ATNO][ 11].d[ 27] =         0.018180095719;
  BAS[ATNO][ 11].a[ 28] =         4.798113940000;     BAS[ATNO][ 11].d[ 28] =         0.039000361857;
  BAS[ATNO][ 11].a[ 29] =         2.133543170000;     BAS[ATNO][ 11].d[ 29] =         0.018070036924;
  BAS[ATNO][ 11].a[ 30] =         0.857316380000;     BAS[ATNO][ 11].d[ 30] =        -0.232379630394;
  BAS[ATNO][ 11].a[ 31] =         0.342926550000;     BAS[ATNO][ 11].d[ 31] =         0.143435600313;
  BAS[ATNO][ 11].a[ 32] =         0.137170620000;     BAS[ATNO][ 11].d[ 32] =         0.077725379050;

  // Basis function  13 L = d
  InitBFNGauss(BAS[ATNO][ 12]);
  BAS[ATNO][ 12].l  = 2;
  BAS[ATNO][ 12].ng = 33;
  BAS[ATNO][ 12].a[  0] =       624.475513000000;     BAS[ATNO][ 12].d[  0] =         0.000177933691;
  BAS[ATNO][ 12].a[  1] =       265.735250000000;     BAS[ATNO][ 12].d[  1] =         0.000620435240;
  BAS[ATNO][ 12].a[  2] =       116.709586000000;     BAS[ATNO][ 12].d[  2] =         0.003710168674;
  BAS[ATNO][ 12].a[  3] =        50.306071000000;     BAS[ATNO][ 12].d[  3] =         0.014254722289;
  BAS[ATNO][ 12].a[  4] =        23.036081700000;     BAS[ATNO][ 12].d[  4] =         0.040743561677;
  BAS[ATNO][ 12].a[  5] =        10.586238100000;     BAS[ATNO][ 12].d[  5] =         0.082658530354;
  BAS[ATNO][ 12].a[  6] =         4.798113940000;     BAS[ATNO][ 12].d[  6] =         0.105594879224;
  BAS[ATNO][ 12].a[  7] =         2.133543170000;     BAS[ATNO][ 12].d[  7] =         0.079700787053;
  BAS[ATNO][ 12].a[  8] =         0.857316380000;     BAS[ATNO][ 12].d[  8] =         0.022859067178;
  BAS[ATNO][ 12].a[  9] =         0.342926550000;     BAS[ATNO][ 12].d[  9] =         0.000095845185;
  BAS[ATNO][ 12].a[ 10] =         0.137170620000;     BAS[ATNO][ 12].d[ 10] =         0.000453410049;
  BAS[ATNO][ 12].a[ 11] =       624.475513000000;     BAS[ATNO][ 12].d[ 11] =        -0.000140639128;
  BAS[ATNO][ 12].a[ 12] =       265.735250000000;     BAS[ATNO][ 12].d[ 12] =        -0.000549526375;
  BAS[ATNO][ 12].a[ 13] =       116.709586000000;     BAS[ATNO][ 12].d[ 13] =        -0.002981976770;
  BAS[ATNO][ 12].a[ 14] =        50.306071000000;     BAS[ATNO][ 12].d[ 14] =        -0.012184390767;
  BAS[ATNO][ 12].a[ 15] =        23.036081700000;     BAS[ATNO][ 12].d[ 15] =        -0.033220991445;
  BAS[ATNO][ 12].a[ 16] =        10.586238100000;     BAS[ATNO][ 12].d[ 16] =        -0.073881890044;
  BAS[ATNO][ 12].a[ 17] =         4.798113940000;     BAS[ATNO][ 12].d[ 17] =        -0.086536719168;
  BAS[ATNO][ 12].a[ 18] =         2.133543170000;     BAS[ATNO][ 12].d[ 18] =        -0.081228296285;
  BAS[ATNO][ 12].a[ 19] =         0.857316380000;     BAS[ATNO][ 12].d[ 19] =         0.324792175351;
  BAS[ATNO][ 12].a[ 20] =         0.342926550000;     BAS[ATNO][ 12].d[ 20] =         0.447918889205;
  BAS[ATNO][ 12].a[ 21] =         0.137170620000;     BAS[ATNO][ 12].d[ 21] =         0.070137098000;
  BAS[ATNO][ 12].a[ 22] =       624.475513000000;     BAS[ATNO][ 12].d[ 22] =        -0.000182162430;
  BAS[ATNO][ 12].a[ 23] =       265.735250000000;     BAS[ATNO][ 12].d[ 23] =        -0.000259110460;
  BAS[ATNO][ 12].a[ 24] =       116.709586000000;     BAS[ATNO][ 12].d[ 24] =        -0.003453897678;
  BAS[ATNO][ 12].a[ 25] =        50.306071000000;     BAS[ATNO][ 12].d[ 25] =        -0.008677868848;
  BAS[ATNO][ 12].a[ 26] =        23.036081700000;     BAS[ATNO][ 12].d[ 26] =        -0.036274758083;
  BAS[ATNO][ 12].a[ 27] =        10.586238100000;     BAS[ATNO][ 12].d[ 27] =        -0.060362842124;
  BAS[ATNO][ 12].a[ 28] =         4.798113940000;     BAS[ATNO][ 12].d[ 28] =        -0.129491765169;
  BAS[ATNO][ 12].a[ 29] =         2.133543170000;     BAS[ATNO][ 12].d[ 29] =        -0.059997417115;
  BAS[ATNO][ 12].a[ 30] =         0.857316380000;     BAS[ATNO][ 12].d[ 30] =         0.771563316246;
  BAS[ATNO][ 12].a[ 31] =         0.342926550000;     BAS[ATNO][ 12].d[ 31] =        -0.476245044616;
  BAS[ATNO][ 12].a[ 32] =         0.137170620000;     BAS[ATNO][ 12].d[ 32] =        -0.258069311474;

  // Basis function  14 L = d
  InitBFNGauss(BAS[ATNO][ 13]);
  BAS[ATNO][ 13].l  = 2;
  BAS[ATNO][ 13].ng = 33;
  BAS[ATNO][ 13].a[  0] =       624.475513000000;     BAS[ATNO][ 13].d[  0] =         0.000009583757;
  BAS[ATNO][ 13].a[  1] =       265.735250000000;     BAS[ATNO][ 13].d[  1] =         0.000033417508;
  BAS[ATNO][ 13].a[  2] =       116.709586000000;     BAS[ATNO][ 13].d[  2] =         0.000199834864;
  BAS[ATNO][ 13].a[  3] =        50.306071000000;     BAS[ATNO][ 13].d[  3] =         0.000767779240;
  BAS[ATNO][ 13].a[  4] =        23.036081700000;     BAS[ATNO][ 13].d[  4] =         0.002194505104;
  BAS[ATNO][ 13].a[  5] =        10.586238100000;     BAS[ATNO][ 13].d[  5] =         0.004452103824;
  BAS[ATNO][ 13].a[  6] =         4.798113940000;     BAS[ATNO][ 13].d[  6] =         0.005687487590;
  BAS[ATNO][ 13].a[  7] =         2.133543170000;     BAS[ATNO][ 13].d[  7] =         0.004292795641;
  BAS[ATNO][ 13].a[  8] =         0.857316380000;     BAS[ATNO][ 13].d[  8] =         0.001231221266;
  BAS[ATNO][ 13].a[  9] =         0.342926550000;     BAS[ATNO][ 13].d[  9] =         0.000005162355;
  BAS[ATNO][ 13].a[ 10] =         0.137170620000;     BAS[ATNO][ 13].d[ 10] =         0.000024421298;
  BAS[ATNO][ 13].a[ 11] =       624.475513000000;     BAS[ATNO][ 13].d[ 11] =         0.000125460141;
  BAS[ATNO][ 13].a[ 12] =       265.735250000000;     BAS[ATNO][ 13].d[ 12] =         0.000490216752;
  BAS[ATNO][ 13].a[ 13] =       116.709586000000;     BAS[ATNO][ 13].d[ 13] =         0.002660136134;
  BAS[ATNO][ 13].a[ 14] =        50.306071000000;     BAS[ATNO][ 13].d[ 14] =         0.010869346293;
  BAS[ATNO][ 13].a[ 15] =        23.036081700000;     BAS[ATNO][ 13].d[ 15] =         0.029635495703;
  BAS[ATNO][ 13].a[ 16] =        10.586238100000;     BAS[ATNO][ 13].d[ 16] =         0.065907919652;
  BAS[ATNO][ 13].a[ 17] =         4.798113940000;     BAS[ATNO][ 13].d[ 17] =         0.077196930540;
  BAS[ATNO][ 13].a[ 18] =         2.133543170000;     BAS[ATNO][ 13].d[ 18] =         0.072461438410;
  BAS[ATNO][ 13].a[ 19] =         0.857316380000;     BAS[ATNO][ 13].d[ 19] =        -0.289737804270;
  BAS[ATNO][ 13].a[ 20] =         0.342926550000;     BAS[ATNO][ 13].d[ 20] =        -0.399575621885;
  BAS[ATNO][ 13].a[ 21] =         0.137170620000;     BAS[ATNO][ 13].d[ 21] =        -0.062567297844;
  BAS[ATNO][ 13].a[ 22] =       624.475513000000;     BAS[ATNO][ 13].d[ 22] =        -0.000220754244;
  BAS[ATNO][ 13].a[ 23] =       265.735250000000;     BAS[ATNO][ 13].d[ 23] =        -0.000314004012;
  BAS[ATNO][ 13].a[ 24] =       116.709586000000;     BAS[ATNO][ 13].d[ 24] =        -0.004185619239;
  BAS[ATNO][ 13].a[ 25] =        50.306071000000;     BAS[ATNO][ 13].d[ 25] =        -0.010516308873;
  BAS[ATNO][ 13].a[ 26] =        23.036081700000;     BAS[ATNO][ 13].d[ 26] =        -0.043959705659;
  BAS[ATNO][ 13].a[ 27] =        10.586238100000;     BAS[ATNO][ 13].d[ 27] =        -0.073150943322;
  BAS[ATNO][ 13].a[ 28] =         4.798113940000;     BAS[ATNO][ 13].d[ 28] =        -0.156925095659;
  BAS[ATNO][ 13].a[ 29] =         2.133543170000;     BAS[ATNO][ 13].d[ 29] =        -0.072708101613;
  BAS[ATNO][ 13].a[ 30] =         0.857316380000;     BAS[ATNO][ 13].d[ 30] =         0.935021984220;
  BAS[ATNO][ 13].a[ 31] =         0.342926550000;     BAS[ATNO][ 13].d[ 31] =        -0.577139396361;
  BAS[ATNO][ 13].a[ 32] =         0.137170620000;     BAS[ATNO][ 13].d[ 32] =        -0.312742291656;

  // Basis function  15 L = f
  InitBFNGauss(BAS[ATNO][ 14]);
  BAS[ATNO][ 14].l  = 3;
  BAS[ATNO][ 14].ng = 8;
  BAS[ATNO][ 14].a[  0] =         1.688892000000;     BAS[ATNO][ 14].d[  0] =        -0.080506665061;
  BAS[ATNO][ 14].a[  1] =         0.675557000000;     BAS[ATNO][ 14].d[  1] =        -0.603960447922;
  BAS[ATNO][ 14].a[  2] =         0.270223000000;     BAS[ATNO][ 14].d[  2] =        -0.199472658529;
  BAS[ATNO][ 14].a[  3] =         0.108089000000;     BAS[ATNO][ 14].d[  3] =        -0.003506266596;
  BAS[ATNO][ 14].a[  4] =         1.688892000000;     BAS[ATNO][ 14].d[  4] =        -0.277804979056;
  BAS[ATNO][ 14].a[  5] =         0.675557000000;     BAS[ATNO][ 14].d[  5] =        -0.322801909274;
  BAS[ATNO][ 14].a[  6] =         0.270223000000;     BAS[ATNO][ 14].d[  6] =         0.677866387347;
  BAS[ATNO][ 14].a[  7] =         0.108089000000;     BAS[ATNO][ 14].d[  7] =        -0.060094137499;

  // Basis function  16 L = f
  InitBFNGauss(BAS[ATNO][ 15]);
  BAS[ATNO][ 15].l  = 3;
  BAS[ATNO][ 15].ng = 8;
  BAS[ATNO][ 15].a[  0] =         1.688892000000;     BAS[ATNO][ 15].d[  0] =         0.061299589597;
  BAS[ATNO][ 15].a[  1] =         0.675557000000;     BAS[ATNO][ 15].d[  1] =         0.459869099811;
  BAS[ATNO][ 15].a[  2] =         0.270223000000;     BAS[ATNO][ 15].d[  2] =         0.151882978811;
  BAS[ATNO][ 15].a[  3] =         0.108089000000;     BAS[ATNO][ 15].d[  3] =         0.002669750426;
  BAS[ATNO][ 15].a[  4] =         1.688892000000;     BAS[ATNO][ 15].d[  4] =        -0.364849954979;
  BAS[ATNO][ 15].a[  5] =         0.675557000000;     BAS[ATNO][ 15].d[  5] =        -0.423945828710;
  BAS[ATNO][ 15].a[  6] =         0.270223000000;     BAS[ATNO][ 15].d[  6] =         0.890263096598;
  BAS[ATNO][ 15].a[  7] =         0.108089000000;     BAS[ATNO][ 15].d[  7] =        -0.078923507546;

  // Basis function  17 L = g
  InitBFNGauss(BAS[ATNO][ 16]);
  BAS[ATNO][ 16].l  = 4;
  BAS[ATNO][ 16].ng = 2;
  BAS[ATNO][ 16].a[  0] =         0.844446000000;     BAS[ATNO][ 16].d[  0] =         0.778246217280;
  BAS[ATNO][ 16].a[  1] =         0.337778000000;     BAS[ATNO][ 16].d[  1] =         0.324482678866;

-------
TIMINGS
-------

Total SCF time: 0 days 0 hours 0 min 28 sec 

Total time                  ....      28.664 sec
Sum of individual times     ....      28.300 sec  ( 98.7%)

Fock matrix formation       ....      27.554 sec  ( 96.1%)
  XC integration            ....       0.041 sec  (  0.1% of F)
    Basis function eval.    ....       0.018 sec  ( 44.9% of XC)
    Density eval.           ....       0.002 sec  (  4.2% of XC)
    XC-Functional eval.     ....       0.002 sec  (  4.3% of XC)
    XC-Potential eval.      ....       0.003 sec  (  7.3% of XC)
Diagonalization             ....       0.001 sec  (  0.0%)
Density matrix formation    ....       0.000 sec  (  0.0%)
Population analysis         ....       0.001 sec  (  0.0%)
Initial guess               ....       0.080 sec  (  0.3%)
Orbital Transformation      ....       0.000 sec  (  0.0%)
Orbital Orthonormalization  ....       0.000 sec  (  0.0%)
DIIS solution               ....       0.000 sec  (  0.0%)
SOSCF solution              ....       0.001 sec  (  0.0%)
Grid generation             ....       0.662 sec  (  2.3%)

-------------------------   --------------------
FINAL SINGLE POINT ENERGY     -1784.530589307014
-------------------------   --------------------


                            ***************************************
                            *     ORCA property calculations      *
                            ***************************************

                                    ---------------------
                                    Active property flags
                                    ---------------------
   (+) Dipole Moment


------------------------------------------------------------------------------
                       ORCA ELECTRIC PROPERTIES CALCULATION
------------------------------------------------------------------------------

Dipole Moment Calculation                       ... on
Quadrupole Moment Calculation                   ... off
Polarizability Calculation                      ... off
GBWName                                         ... Kr_ano-rcc-tzp_34.25899725_.gbw
Electron density file                           ... Kr_ano-rcc-tzp_34.25899725_.scfp
The origin for moment calculation is the CENTER OF MASS  = ( 0.000000,  0.000000  0.000000)

-------------
DIPOLE MOMENT
-------------
                                X             Y             Z
Electronic contribution:      0.00000       0.00000       0.00000
Nuclear contribution   :      0.00000       0.00000       0.00000
                        -----------------------------------------
Total Dipole Moment    :      0.00000       0.00000       0.00000
                        -----------------------------------------
Magnitude (a.u.)       :      0.00000
Magnitude (Debye)      :      0.00000



--------------------
Rotational spectrum 
--------------------
 
Rotational constants in cm-1:     0.000000     0.000000     0.000000 
Rotational constants in MHz :     0.000000     0.000000     0.000000 

 Dipole components along the rotational axes: 
x,y,z [a.u.] :     0.000000     0.000000     0.000000 
x,y,z [Debye]:     0.000000     0.000000     0.000000 

 

Timings for individual modules:

Sum of individual times         ...       30.222 sec (=   0.504 min)
GTO integral calculation        ...        0.759 sec (=   0.013 min)   2.5 %
Relativistic integrals          ...        0.472 sec (=   0.008 min)   1.6 %
SCF iterations                  ...       28.991 sec (=   0.483 min)  95.9 %
                             ****ORCA TERMINATED NORMALLY****
TOTAL RUN TIME: 0 days 0 hours 0 minutes 30 seconds 622 msec
