
                                 *****************
                                 * O   R   C   A *
                                 *****************

           --- An Ab Initio, DFT and Semiempirical electronic structure package ---

                  #######################################################
                  #                        -***-                        #
                  #          Department of theory and spectroscopy      #
                  #               Directorship: Frank Neese             #
                  #        Max Planck Institute fuer Kohlenforschung    #
                  #                Kaiser Wilhelm Platz 1               #
                  #                 D-45470 Muelheim/Ruhr               #
                  #                      Germany                        #
                  #                                                     #
                  #                  All rights reserved                #
                  #                        -***-                        #
                  #######################################################


                         Program Version 4.2.1 -  RELEASE  -


 With contributions from (in alphabetic order):
   Daniel Aravena         : Magnetic Suceptibility
   Michael Atanasov       : Ab Initio Ligand Field Theory (pilot matlab implementation)
   Alexander A. Auer      : GIAO ZORA, VPT2
   Ute Becker             : Parallelization
   Giovanni Bistoni       : ED, misc. LED, open-shell LED, HFLD
   Martin Brehm           : Molecular dynamics
   Dmytro Bykov           : SCF Hessian
   Vijay G. Chilkuri      : MRCI spin determinant printing, contributions to CSF-ICE
   Dipayan Datta          : RHF DLPNO-CCSD density
   Achintya Kumar Dutta   : EOM-CC, STEOM-CC
   Dmitry Ganyushin       : Spin-Orbit,Spin-Spin,Magnetic field MRCI
   Miquel Garcia          : C-PCM Hessian, Gaussian charge scheme
   Yang Guo               : DLPNO-NEVPT2, CIM, IAO-localization
   Andreas Hansen         : Spin unrestricted coupled pair/coupled cluster methods
   Benjamin Helmich-Paris : CASSCF linear response (MC-RPA)
   Lee Huntington         : MR-EOM, pCC
   Robert Izsak           : Overlap fitted RIJCOSX, COSX-SCS-MP3, EOM
   Christian Kollmar      : KDIIS, OOCD, Brueckner-CCSD(T), CCSD density
   Simone Kossmann        : Meta GGA functionals, TD-DFT gradient, OOMP2, MP2 Hessian
   Martin Krupicka        : AUTO-CI
   Lucas Lang             : DCDCAS
   Dagmar Lenk            : GEPOL surface, SMD
   Dimitrios Liakos       : Extrapolation schemes; Compound Job, initial MDCI parallelization
   Dimitrios Manganas     : Further ROCIS development; embedding schemes
   Dimitrios Pantazis     : SARC Basis sets
   Taras Petrenko         : DFT Hessian,TD-DFT gradient, ASA, ECA, R-Raman, ABS, FL, XAS/XES, NRVS
   Peter Pinski           : DLPNO-MP2, DLPNO-MP2 Gradient
   Christoph Reimann      : Effective Core Potentials
   Marius Retegan         : Local ZFS, SOC
   Christoph Riplinger    : Optimizer, TS searches, QM/MM, DLPNO-CCSD(T), (RO)-DLPNO pert. Triples
   Tobias Risthaus        : Range-separated hybrids, TD-DFT gradient, RPA, STAB
   Michael Roemelt        : Original ROCIS implementation
   Masaaki Saitow         : Open-shell DLPNO-CCSD energy and density
   Barbara Sandhoefer     : DKH picture change effects
   Avijit Sen             : IP-ROCIS
   Kantharuban Sivalingam : CASSCF convergence, NEVPT2, FIC-MRCI
   Bernardo de Souza      : ESD, SOC TD-DFT
   Georgi Stoychev        : AutoAux, RI-MP2 NMR
   Willem Van den Heuvel  : Paramagnetic NMR
   Boris Wezisla          : Elementary symmetry handling
   Frank Wennmohs         : Technical directorship


 We gratefully acknowledge several colleagues who have allowed us to
 interface, adapt or use parts of their codes:
   Stefan Grimme, W. Hujo, H. Kruse,             : VdW corrections, initial TS optimization,
                  C. Bannwarth                     DFT functionals, gCP, sTDA/sTD-DF
   Ed Valeev, F. Pavosevic, A. Kumar             : LibInt (2-el integral package), F12 methods
   Garnet Chan, S. Sharma, J. Yang, R. Olivares  : DMRG
   Ulf Ekstrom                                   : XCFun DFT Library
   Mihaly Kallay                                 : mrcc  (arbitrary order and MRCC methods)
   Andreas Klamt, Michael Diedenhofen            : otool_cosmo (COSMO solvation model)
   Jiri Pittner, Ondrej Demel                    : Mk-CCSD
   Frank Weinhold                                : gennbo (NPA and NBO analysis)
   Christopher J. Cramer and Donald G. Truhlar   : smd solvation model
   Lars Goerigk                                  : TD-DFT with DH, B97 family of functionals
   V. Asgeirsson, H. Jonsson                     : NEB implementation
   FAccTs GmbH                                   : IRC, NEB, NEB-TS, Multilevel, MM, QM/MM, CI optimization
   S Lehtola, MJT Oliveira, MAL Marques          : LibXC Library


 Your calculation uses the libint2 library for the computation of 2-el integrals
 For citations please refer to: http://libint.valeyev.net

 Your ORCA version has been built with support for libXC version: 4.2.3
 For citations please refer to: https://tddft.org/programs/libxc/

 This ORCA versions uses:
   CBLAS   interface :  Fast vector & matrix operations
   LAPACKE interface :  Fast linear algebra routines
   SCALAPACK package :  Parallel linear algebra routines


----- Orbital basis set information -----
Your calculation utilizes the basis: cc-pCVTZ 
             H : cc-pVTZ. Obtained from the ccRepo (grant-hill.group.shef.ac.uk/ccrepo) Feb. 2017
                 T. H. Dunning, Jr., J. Chem. Phys. 90, 1007 (1989)
            He : cc-pVTZ. Obtained from the ccRepo (grant-hill.group.shef.ac.uk/ccrepo) Feb. 2017
                 D. E. Woon, T. H. Dunning, Jr., J. Chem. Phys. 100, 2975 (1994)
  Li-Be, Na-Mg : Obtained from the ccRepo (grant-hill.group.shef.ac.uk/ccrepo) Feb. 2017
                 B. P. Prascher, D. E. Woon, K. A. Peterson, T. H. Dunning, Jr., A. K. Wilson, Theor. Chem. Acc. 128, 69 (2011)
          B-Ne : Obtained from the ccRepo (grant-hill.group.shef.ac.uk/ccrepo) Feb. 2017
                 D. E. Woon, T. H. Dunning, Jr., J. Chem. Phys. 103, 4572 (1995)
                  K. A. Peterson, T. H. Dunning, Jr., J. Chem. Phys. 117, 10548 (2002)
         Al-Ar : Obtained from the EMSL Basis Set Exchange (bse.pnl.gov) Feb. 2017
                 K. A. Peterson, T. H. Dunning, Jr., J. Chem. Phys. 117, 10548 (2002)
            Ca : Obtained from the Peterson Research Group Website (tyr0.chem.wsu.edu/~kipeters) Feb. 2017
                 J. Koput, K. A. Peterson, J. Phys. Chem. 106, 9595 (2002)
         Ga-Kr : Obtained from the Peterson Research Group Website (tyr0.chem.wsu.edu/~kipeters) Feb. 2017
                 N. J. DeYonker, K. A. Peterson, A. K. Wilson, J. Phys. Chem. A 111, 11383 (2007)

================================================================================
                                        WARNINGS
                       Please study these warnings very carefully!
================================================================================


INFO   : the flag for use of LIBINT has been found!

================================================================================
                                       INPUT FILE
================================================================================
NAME = Kr_cc-pcvtz_4385.151648_.inp
|  1> ! LDA cc-pcvtz nori grid5 finalgrid6 verytightscf
|  2> %Pal NProcs 18 End
|  3> 
|  4> % REL
|  5>   Method ZORA
|  6>   ModelPot 1, 0, 0, 0
|  7>   velit 4385.151648
|  8> END
|  9> 
| 10> *xyz 34 1
| 11> Kr 0.0 0.0 0.0
| 12> **                         ****END OF INPUT****
================================================================================

                       ****************************
                       * Single Point Calculation *
                       ****************************

---------------------------------
CARTESIAN COORDINATES (ANGSTROEM)
---------------------------------
  Kr     0.000000    0.000000    0.000000

----------------------------
CARTESIAN COORDINATES (A.U.)
----------------------------
  NO LB      ZA    FRAG     MASS         X           Y           Z
   0 Kr   36.0000    0    83.800    0.000000    0.000000    0.000000

--------------------------------
INTERNAL COORDINATES (ANGSTROEM)
--------------------------------
 Kr     0   0   0     0.000000000000     0.00000000     0.00000000

---------------------------
INTERNAL COORDINATES (A.U.)
---------------------------
 Kr     0   0   0     0.000000000000     0.00000000     0.00000000

---------------------
BASIS SET INFORMATION
---------------------
There are 1 groups of distinct atoms

 Group   1 Type Kr  : 76s37p11d3f1g contracted to 8s7p5d3f1g pattern {181818181111/1111111111/71111/111/1}

Atom   0Kr   basis set group =>   1


           ************************************************************
           *        Program running with 18 parallel MPI-processes    *
           *              working on a common directory               *
           ************************************************************
------------------------------------------------------------------------------
                           ORCA GTO INTEGRAL CALCULATION
------------------------------------------------------------------------------

                         BASIS SET STATISTICS AND STARTUP INFO

 # of primitive gaussian shells          ...  128
 # of primitive gaussian functions       ...  272
 # of contracted shells                  ...   24
 # of contracted basis functions         ...   84
 Highest angular momentum                ...    4
 Maximum contraction depth               ...   18
 Integral package used                   ... LIBINT
 Integral threshhold            Thresh   ...  1.000e-12
 Primitive cut-off              TCut     ...  1.000e-14


------------------------------ INTEGRAL EVALUATION ----------------------------


 * One electron integrals 
 Pre-screening matrix                    ... done
 Shell pair data                         ... done (   0.000 sec)



           ************************************************************
           *        Program running with 18 parallel MPI-processes    *
           *              working on a common directory               *
           ************************************************************
------------------------------------------------------------------------------
                          ORCA RELATIVISTIC HAMILTONIAN
------------------------------------------------------------------------------

Relativistic Method            ... ZORA(MP)
Treatment of potential         ... Van Wuellen
Nucleus model                  ... Point Nucleus
Speed of light used            ... 4385.15164800000002


            *************************************************
            *         ZERO ORDER REGULAR APPROXIMATION      *
            *                     ZORA(MP)                  *
            *            Programmed by FN according to      *
            *                   C. van Wuellen              *
            *       J. Chem. Phys. (1998) vol 109, 392-399  *
            *************************************************

Terms included in model potential: +V(e,N)
Basis function cutoff value   ... 1.000000e-12
Loading the fitted atomic densities  (DKH4)  ... done
Calculating the cutoffs                      ... done
Number of fit functions                      ... 27
Setting up the integration grid ... done


           ************************************************************
           *        Program running with 18 parallel MPI-processes    *
           *              working on a common directory               *
           ************************************************************
-------------------------------------------------------------------------------
                                 ORCA SCF
-------------------------------------------------------------------------------

------------
SCF SETTINGS
------------
Hamiltonian:
 Density Functional     Method          .... DFT(GTOs)
 Exchange Functional    Exchange        .... Slater
   X-Alpha parameter    XAlpha          ....  0.666667
 Correlation Functional Correlation     .... VWN-5
 Gradients option       PostSCFGGA      .... off
   Density functional embedding theory  .... OFF

Relativistic Settings:
 Scalar relativistic method             .... ZORA
 Speed of light used       Velit        ....       4385.15165
Orbital energies will be scaled


General Settings:
 Integral files         IntName         .... Kr_cc-pcvtz_4385.151648_
 Hartree-Fock type      HFTyp           .... RHF
 Total Charge           Charge          ....   34
 Multiplicity           Mult            ....    1
 Number of Electrons    NEL             ....    2
 Basis Dimension        Dim             ....   84
 Nuclear Repulsion      ENuc            ....      0.0000000000 Eh

Convergence Acceleration:
 DIIS                   CNVDIIS         .... on
   Start iteration      DIISMaxIt       ....    12
   Startup error        DIISStart       ....  0.200000
   # of expansion vecs  DIISMaxEq       ....     5
   Bias factor          DIISBfac        ....   1.050
   Max. coefficient     DIISMaxC        ....  10.000
 Newton-Raphson         CNVNR           .... off
 SOSCF                  CNVSOSCF        .... on
   Start iteration      SOSCFMaxIt      ....   150
   Startup grad/error   SOSCFStart      ....  0.003300
 Level Shifting         CNVShift        .... on
   Level shift para.    LevelShift      ....    0.2500
   Turn off err/grad.   ShiftErr        ....    0.0010
 Zerner damping         CNVZerner       .... off
 Static damping         CNVDamp         .... on
   Fraction old density DampFac         ....    0.7000
   Max. Damping (<1)    DampMax         ....    0.9800
   Min. Damping (>=0)   DampMin         ....    0.0000
   Turn off err/grad.   DampErr         ....    0.1000
 Fernandez-Rico         CNVRico         .... off

SCF Procedure:
 Maximum # iterations   MaxIter         ....   125
 SCF integral mode      SCFMode         .... Direct
   Integral package                     .... LIBINT
 Reset frequency        DirectResetFreq ....    20
 Integral Threshold     Thresh          ....  1.000e-12 Eh
 Primitive CutOff       TCut            ....  1.000e-14 Eh

Convergence Tolerance:
 Convergence Check Mode ConvCheckMode   .... Total+1el-Energy
 Convergence forced     ConvForced      .... 0
 Energy Change          TolE            ....  1.000e-09 Eh
 1-El. energy change                    ....  1.000e-06 Eh
 Orbital Gradient       TolG            ....  2.000e-06
 Orbital Rotation angle TolX            ....  2.000e-06
 DIIS Error             TolErr          ....  1.000e-08


Diagonalization of the overlap matrix:
Smallest eigenvalue                        ... 1.149e-03
Time for diagonalization                   ...    0.002 sec
Threshold for overlap eigenvalues          ... 1.000e-08
Number of eigenvalues below threshold      ... 0
Time for construction of square roots      ...    0.001 sec
Total time needed                          ...    0.003 sec

-------------------
DFT GRID GENERATION
-------------------

General Integration Accuracy     IntAcc      ...  5.010
Radial Grid Type                 RadialGrid  ... Gauss-Chebyshev
Angular Grid (max. acc.)         AngularGrid ... Lebedev-434
Angular grid pruning method      GridPruning ... 3 (G Style)
Weight generation scheme         WeightScheme... Becke
Basis function cutoff            BFCut       ...    1.0000e-12
Integration weight cutoff        WCut        ...    1.0000e-14
Grids for H and He will be reduced by one unit

# of grid points (after initial pruning)     ...  16106 (   0.0 sec)
# of grid points (after weights+screening)   ...  16106 (   0.0 sec)
Grid point division into batches done        ...    0.2 sec
Reduced shell lists constructed in    0.2 sec

Total number of grid points                  ...    16106
Total number of batches                      ...      252
Average number of points per batch           ...       63
Average number of grid points per atom       ...    16106
Average number of shells per batch           ...     0.53 ( 2.22%)
Average number of basis functions per batch  ...     1.60 ( 1.90%)
Average number of large shells per batch     ...     0.53 (100.00%)
Average number of large basis fcns per batch ...     1.60 (100.00%)
Maximum spatial batch extension              ...  17.34, 17.34, 17.34 au
Average spatial batch extension              ...   0.86,  0.87,  0.87 au

Time for grid setup =    0.245 sec

------------------------------
INITIAL GUESS: MODEL POTENTIAL
------------------------------
Loading ZORA relativistic densities                ... done
Calculating cut-offs                               ... done
Setting up the integral package                    ... done
Initializing the effective Hamiltonian             ... done
Starting the Coulomb interaction                   ... done (   0.0 sec)
Reading the grid                                   ... done
Mapping shells                                     ... done
Starting the XC term evaluation                    ... done (   0.0 sec)
  promolecular density results
     # of electrons  =     36.000000565
     EX              =    -91.042004939
     EC              =     -3.295965580
     EX+EC           =    -94.337970520
Transforming the Hamiltonian                       ... done (   0.0 sec)
Diagonalizing the Hamiltonian                      ... done (   0.0 sec)
Back transforming the eigenvectors                 ... done (   0.0 sec)
Now organizing SCF variables                       ... done
                      ------------------
                      INITIAL GUESS DONE (   0.3 sec)
                      ------------------
--------------
SCF ITERATIONS
--------------
ITER       Energy         Delta-E        Max-DP      RMS-DP      [F,P]     Damp
               ***  Starting incremental Fock matrix formation  ***
  0  -1270.7042635867   0.000000000000 0.01786873  0.00029425  6.2038376 0.7000
                      *** Initiating the SOSCF procedure ***
                      *** Re-Reading the Fockian *** 
                      *** Removing any level shift *** 
ITER      Energy       Delta-E        Grad      Rot      Max-DP    RMS-DP
  1  -1270.72192649  -0.0176629008  0.002933  0.002933  0.041664  0.000686
               *** Restarting incremental Fock matrix formation ***
  2  -1270.76294245  -0.0410159575  0.010841  0.000023  0.000126  0.000002
  3  -1270.76294310  -0.0000006514  0.000050  0.000000  0.000001  0.000000
                 **** Energy Check signals convergence ****
              ***Rediagonalizing the Fockian in SOSCF/NRSCF***

               *****************************************************
               *                     SUCCESS                       *
               *           SCF CONVERGED AFTER   4 CYCLES          *
               *****************************************************

Setting up the final grid:

General Integration Accuracy     IntAcc      ...  5.340
Radial Grid Type                 RadialGrid  ... Gauss-Chebyshev
Angular Grid (max. acc.)         AngularGrid ... Lebedev-590
Angular grid pruning method      GridPruning ... 3 (G Style)
Weight generation scheme         WeightScheme... Becke
Basis function cutoff            BFCut       ...    1.0000e-12
Integration weight cutoff        WCut        ...    1.0000e-14
Grids for H and He will be reduced by one unit

# of grid points (after initial pruning)     ...  24180 (   0.0 sec)
# of grid points (after weights+screening)   ...  24180 (   0.0 sec)
Grid point division into batches done        ...    0.4 sec
Reduced shell lists constructed in    0.4 sec

Total number of grid points                  ...    24180
Total number of batches                      ...      378
Average number of points per batch           ...       63
Average number of grid points per atom       ...    24180
Average number of shells per batch           ...     0.27 ( 1.14%)
Average number of basis functions per batch  ...     0.55 ( 0.65%)
Average number of large shells per batch     ...     0.14 (50.00%)
Average number of large basis fcns per batch ...     0.41 (75.00%)
Maximum spatial batch extension              ...  17.58, 17.58, 17.58 au
Average spatial batch extension              ...   0.77,  0.77,  0.77 au

Final grid set up in    0.5 sec
Final integration                            ... done (   0.0 sec)
Change in XC energy                          ...    -0.000059994
Integrated number of electrons               ...     1.999999890
Previous integrated no of electrons          ...     1.999998353

----------------
TOTAL SCF ENERGY
----------------

Total Energy       :        -1270.76300309 Eh          -34579.21929 eV

Components:
Nuclear Repulsion  :            0.00000000 Eh               0.00000 eV
Electronic Energy  :        -1270.76300309 Eh          -34579.21929 eV
One Electron Energy:        -1295.85217200 Eh          -35261.93028 eV
Two Electron Energy:           25.08916891 Eh             682.71099 eV

Virial components:
Potential Energy   :        -2537.53056086 Eh          -69049.71698 eV
Kinetic Energy     :         1266.76755777 Eh           34470.49769 eV
Virial Ratio       :            2.00315405


DFT components:
N(Alpha)           :        0.999999945097 electrons
N(Beta)            :        0.999999945097 electrons
N(Total)           :        1.999999890194 electrons
E(X)               :      -19.055057594111 Eh       
E(C)               :       -0.277891254677 Eh       
E(XC)              :      -19.332948848787 Eh       
DFET-embed. en.    :        0.000000000000 Eh       

---------------
SCF CONVERGENCE
---------------

  Last Energy change         ...   -1.4097e-11  Tolerance :   1.0000e-09
  Last MAX-Density change    ...    0.0000e+00  Tolerance :   1.0000e-08
  Last RMS-Density change    ...    0.0000e+00  Tolerance :   1.0000e-09
  Last Orbital Gradient      ...    1.8827e-10  Tolerance :   2.0000e-06
  Last Orbital Rotation      ...    0.0000e+00  Tolerance :   2.0000e-06

================================================================================
                                        WARNING
Number of found core electrons (2) does not match given number of chemical core electrons (18)
================================================================================
             **** THE GBW FILE WAS UPDATED (Kr_cc-pcvtz_4385.151648_.gbw) ****
             **** DENSITY FILE WAS UPDATED (Kr_cc-pcvtz_4385.151648_.scfp) ****
             **** ENERGY FILE WAS UPDATED (Kr_cc-pcvtz_4385.151648_.en.tmp) ****
             **** THE GBW FILE WAS UPDATED (Kr_cc-pcvtz_4385.151648_.gbw) ****
             **** DENSITY FILE WAS UPDATED (Kr_cc-pcvtz_4385.151648_.scfp) ****
----------------
ORBITAL ENERGIES
----------------

  NO   OCC          E(Eh)            E(eV) 
   0   2.0000    -616.356082    -16771.9017 
   1   0.0000    -148.865908     -4050.8473 
   2   0.0000    -147.157306     -4004.3539 
   3   0.0000    -147.157306     -4004.3539 
   4   0.0000    -147.157306     -4004.3539 
   5   0.0000     -65.231240     -1775.0323 
   6   0.0000     -64.863322     -1765.0207 
   7   0.0000     -64.863322     -1765.0207 
   8   0.0000     -64.863322     -1765.0207 
   9   0.0000     -64.352154     -1751.1111 
  10   0.0000     -64.352154     -1751.1111 
  11   0.0000     -64.352154     -1751.1111 
  12   0.0000     -64.352154     -1751.1111 
  13   0.0000     -64.352154     -1751.1111 
  14   0.0000     -36.458487      -992.0859 
  15   0.0000     -36.364564      -989.5301 
  16   0.0000     -36.364564      -989.5301 
  17   0.0000     -36.364564      -989.5301 
  18   0.0000     -36.092828      -982.1358 
  19   0.0000     -36.092828      -982.1358 
  20   0.0000     -36.092828      -982.1358 
  21   0.0000     -36.092828      -982.1358 
  22   0.0000     -36.092828      -982.1358 
  23   0.0000     -35.681153      -970.9335 
  24   0.0000     -35.681153      -970.9335 
  25   0.0000     -35.681153      -970.9335 
  26   0.0000     -35.681153      -970.9335 
  27   0.0000     -35.681153      -970.9335 
  28   0.0000     -35.681153      -970.9335 
  29   0.0000     -35.681153      -970.9335 
  30   0.0000     -22.758296      -619.2847 
  31   0.0000     -22.612854      -615.3270 
  32   0.0000     -22.612854      -615.3270 
  33   0.0000     -22.612854      -615.3270 
  34   0.0000     -22.363261      -608.5353 
  35   0.0000     -22.363261      -608.5353 
  36   0.0000     -22.363261      -608.5353 
  37   0.0000     -22.363261      -608.5353 
  38   0.0000     -22.363261      -608.5353 
  39   0.0000     -20.212253      -550.0034 
  40   0.0000     -20.212253      -550.0034 
  41   0.0000     -20.212253      -550.0034 
  42   0.0000     -20.212253      -550.0034 
  43   0.0000     -20.212253      -550.0034 
  44   0.0000     -20.212253      -550.0034 
  45   0.0000     -20.212253      -550.0034 
  46   0.0000     -16.834540      -458.0911 
  47   0.0000     -16.834540      -458.0911 
  48   0.0000     -16.834540      -458.0911 
  49   0.0000     -16.834540      -458.0911 
  50   0.0000     -16.834540      -458.0911 
  51   0.0000     -16.834540      -458.0911 
  52   0.0000     -16.834540      -458.0911 
  53   0.0000     -16.834540      -458.0911 
  54   0.0000     -16.834540      -458.0911 
  55   0.0000     -15.569253      -423.6609 
  56   0.0000     -15.569253      -423.6609 
  57   0.0000     -15.569253      -423.6609 
  58   0.0000     -15.569253      -423.6609 
  59   0.0000     -15.569253      -423.6609 
  60   0.0000     -15.351966      -417.7482 
  61   0.0000     -15.351966      -417.7482 
  62   0.0000     -15.351966      -417.7482 
  63   0.0000     -15.351966      -417.7482 
  64   0.0000     -15.351966      -417.7482 
  65   0.0000     -15.351966      -417.7482 
  66   0.0000     -15.351966      -417.7482 
  67   0.0000     -14.698354      -399.9625 
  68   0.0000     -14.354217      -390.5981 
  69   0.0000     -14.354217      -390.5981 
  70   0.0000     -14.354217      -390.5981 
  71   0.0000     -11.238576      -305.8172 
  72   0.0000     -11.238576      -305.8172 
  73   0.0000     -11.238576      -305.8172 
  74   0.0000     -11.238575      -305.8172 
  75   0.0000     -11.238575      -305.8172 
  76   0.0000      -9.688272      -263.6313 
  77   0.0000      -9.688272      -263.6313 
  78   0.0000      -9.688272      -263.6313 
  79   0.0000      -9.474408      -257.8117 
  80   0.0000      -7.817216      -212.7173 
  81   0.0000      -7.817216      -212.7173 
  82   0.0000      -7.817216      -212.7173 
  83   0.0000      27.538661       749.3651 

                    ********************************
                    * MULLIKEN POPULATION ANALYSIS *
                    ********************************

-----------------------
MULLIKEN ATOMIC CHARGES
-----------------------
   0 Kr:   34.000000
Sum of atomic charges:   34.0000000

--------------------------------
MULLIKEN REDUCED ORBITAL CHARGES
--------------------------------
  0 Krs       :     2.000000  s :     2.000000
      pz      :     0.000000  p :     0.000000
      px      :     0.000000
      py      :     0.000000
      dz2     :     0.000000  d :     0.000000
      dxz     :     0.000000
      dyz     :     0.000000
      dx2y2   :     0.000000
      dxy     :     0.000000
      f0      :     0.000000  f :     0.000000
      f+1     :     0.000000
      f-1     :     0.000000
      f+2     :     0.000000
      f-2     :     0.000000
      f+3     :     0.000000
      f-3     :     0.000000
      g0      :     0.000000  g :     0.000000
      g+1     :     0.000000
      g-1     :     0.000000
      g+2     :     0.000000
      g-2     :     0.000000
      g+3     :     0.000000
      g-3     :     0.000000
      g+4     :     0.000000
      g-4     :     0.000000


                     *******************************
                     * LOEWDIN POPULATION ANALYSIS *
                     *******************************

----------------------
LOEWDIN ATOMIC CHARGES
----------------------
   0 Kr:   34.000000

-------------------------------
LOEWDIN REDUCED ORBITAL CHARGES
-------------------------------
  0 Krs       :     2.000000  s :     2.000000
      pz      :     0.000000  p :     0.000000
      px      :     0.000000
      py      :     0.000000
      dz2     :     0.000000  d :     0.000000
      dxz     :     0.000000
      dyz     :     0.000000
      dx2y2   :     0.000000
      dxy     :     0.000000
      f0      :     0.000000  f :     0.000000
      f+1     :     0.000000
      f-1     :     0.000000
      f+2     :     0.000000
      f-2     :     0.000000
      f+3     :     0.000000
      f-3     :     0.000000
      g0      :     0.000000  g :     0.000000
      g+1     :     0.000000
      g-1     :     0.000000
      g+2     :     0.000000
      g-2     :     0.000000
      g+3     :     0.000000
      g-3     :     0.000000
      g+4     :     0.000000
      g-4     :     0.000000


                      *****************************
                      * MAYER POPULATION ANALYSIS *
                      *****************************

  NA   - Mulliken gross atomic population
  ZA   - Total nuclear charge
  QA   - Mulliken gross atomic charge
  VA   - Mayer's total valence
  BVA  - Mayer's bonded valence
  FA   - Mayer's free valence

  ATOM       NA         ZA         QA         VA         BVA        FA
  0 Kr     2.0000    36.0000    34.0000     0.0000     0.0000     0.0000

  Mayer bond orders larger than 0.100000


--------------------------
ATOM BASIS FOR ELEMENT Kr
--------------------------
 NewGTO Kr
 S 76
    1   11718110.000000000000         0.000005577060
    2    1754604.000000000000         0.000043620579
    3     399281.299999999988         0.000229555785
    4     113084.600000000006         0.000969312994
    5      36885.930000000000         0.003519224623
    6      13312.209999999999         0.011369932863
    7       5189.988000000000         0.032996776703
    8       2151.660000000000         0.085096379111
    9        938.032500000000         0.186146735859
   10        426.557300000000         0.313685838331
   11        201.066600000000         0.332963843482
   12         97.097610000000         0.160221970354
   13         42.998720000000         0.017770406251
   14         21.177070000000        -0.001373649864
   15         10.426750000000         0.000654507859
   16          4.585008000000        -0.000337412147
   17          2.117603000000         0.000120603928
   18          0.349225000000         0.000036450073
   19   11718110.000000000000         0.000000038128
   20    1754604.000000000000         0.000000292313
   21     399281.299999999988         0.000001537823
   22     113084.600000000006         0.000006488086
   23      36885.930000000000         0.000023675265
   24      13312.209999999999         0.000076827581
   25       5189.988000000000         0.000227563846
   26       2151.660000000000         0.000607910152
   27        938.032500000000         0.001454532305
   28        426.557300000000         0.002891688909
   29        201.066600000000         0.004283996592
   30         97.097610000000         0.002310057306
   31         42.998720000000        -0.007029857135
   32         21.177070000000        -0.012599659783
   33         10.426750000000        -0.005136295555
   34          4.585008000000        -0.000364843105
   35          2.117603000000        -0.000007805614
   36          0.349225000000         0.000002442299
   37   11718110.000000000000        -0.000000006489
   38    1754604.000000000000        -0.000000050986
   39     399281.299999999988        -0.000000270691
   40     113084.600000000006        -0.000001138384
   41      36885.930000000000        -0.000004163259
   42      13312.209999999999        -0.000013494671
   43       5189.988000000000        -0.000040157701
   44       2151.660000000000        -0.000107502199
   45        938.032500000000        -0.000261035714
   46        426.557300000000        -0.000528717255
   47        201.066600000000        -0.000826307332
   48         97.097610000000        -0.000471317857
   49         42.998720000000         0.001780838603
   50         21.177070000000         0.004747320821
   51         10.426750000000         0.001721487822
   52          4.585008000000        -0.006168520003
   53          2.117603000000        -0.005584315799
   54          0.349225000000         0.000098684358
   55   11718110.000000000000        -0.000000000195
   56    1754604.000000000000        -0.000000001753
   57     399281.299999999988        -0.000000009059
   58     113084.600000000006        -0.000000038089
   59      36885.930000000000        -0.000000139302
   60      13312.209999999999        -0.000000451902
   61       5189.988000000000        -0.000001344407
   62       2151.660000000000        -0.000003604405
   63        938.032500000000        -0.000008759538
   64        426.557300000000        -0.000017828755
   65        201.066600000000        -0.000028012189
   66         97.097610000000        -0.000016299652
   67         42.998720000000         0.000063553678
   68         21.177070000000         0.000178697852
   69         10.426750000000         0.000067428114
   70          4.585008000000        -0.000307440980
   71          2.117603000000        -0.000490137178
   72          0.349225000000         0.000698609336
   73          0.707057000000        -0.001327339029
   74          0.144821000000        -0.000213376303
   75          2.211600000000         0.009601752807
   76         10.467400000000         0.012794561474
 S 76
    1   11718110.000000000000        -0.000000498423
    2    1754604.000000000000        -0.000003898380
    3     399281.299999999988        -0.000020515445
    4     113084.600000000006        -0.000086627690
    5      36885.930000000000        -0.000314513786
    6      13312.209999999999        -0.001016133101
    7       5189.988000000000        -0.002948928322
    8       2151.660000000000        -0.007605079876
    9        938.032500000000        -0.016635969822
   10        426.557300000000        -0.028034164102
   11        201.066600000000        -0.029757043155
   12         97.097610000000        -0.014319068510
   13         42.998720000000        -0.001588144647
   14         21.177070000000         0.000122763354
   15         10.426750000000        -0.000058493494
   16          4.585008000000         0.000030154589
   17          2.117603000000        -0.000010778396
   18          0.349225000000        -0.000003257550
   19   11718110.000000000000         0.000002324388
   20    1754604.000000000000         0.000017820311
   21     399281.299999999988         0.000093750331
   22     113084.600000000006         0.000395533419
   23      36885.930000000000         0.001443316039
   24      13312.209999999999         0.004683642547
   25       5189.988000000000         0.013872982799
   26       2151.660000000000         0.037060048027
   27        938.032500000000         0.088672704183
   28        426.557300000000         0.176286132936
   29        201.066600000000         0.261165435314
   30         97.097610000000         0.140828105021
   31         42.998720000000        -0.428561428433
   32         21.177070000000        -0.768113503770
   33         10.426750000000        -0.313124167071
   34          4.585008000000        -0.022241943093
   35          2.117603000000        -0.000475853951
   36          0.349225000000         0.000148889988
   37   11718110.000000000000        -0.000000024056
   38    1754604.000000000000        -0.000000189011
   39     399281.299999999988        -0.000001003478
   40     113084.600000000006        -0.000004220105
   41      36885.930000000000        -0.000015433627
   42      13312.209999999999        -0.000050026120
   43       5189.988000000000        -0.000148868688
   44       2151.660000000000        -0.000398521606
   45        938.032500000000        -0.000967685995
   46        426.557300000000        -0.001960008746
   47        201.066600000000        -0.003063205490
   48         97.097610000000        -0.001747223330
   49         42.998720000000         0.006601750189
   50         21.177070000000         0.017598802096
   51         10.426750000000         0.006381730798
   52          4.585008000000        -0.022867332300
   53          2.117603000000        -0.020701627778
   54          0.349225000000         0.000365832971
   55   11718110.000000000000         0.000000000690
   56    1754604.000000000000         0.000000006207
   57     399281.299999999988         0.000000032069
   58     113084.600000000006         0.000000134826
   59      36885.930000000000         0.000000493096
   60      13312.209999999999         0.000001599632
   61       5189.988000000000         0.000004758897
   62       2151.660000000000         0.000012758783
   63        938.032500000000         0.000031006797
   64        426.557300000000         0.000063109786
   65        201.066600000000         0.000099156856
   66         97.097610000000         0.000057697105
   67         42.998720000000        -0.000224965743
   68         21.177070000000        -0.000632550251
   69         10.426750000000        -0.000238680375
   70          4.585008000000         0.001088272000
   71          2.117603000000         0.001734975496
   72          0.349225000000        -0.002472920099
   73          0.707057000000         0.002181349633
   74          0.144821000000         0.000490023750
   75          2.211600000000         0.029520992729
   76         10.467400000000         0.313717480200
 S 76
    1   11718110.000000000000        -0.000000810257
    2    1754604.000000000000        -0.000006337365
    3     399281.299999999988        -0.000033350747
    4     113084.600000000006        -0.000140825518
    5      36885.930000000000        -0.000511286483
    6      13312.209999999999        -0.001651867557
    7       5189.988000000000        -0.004793898573
    8       2151.660000000000        -0.012363129104
    9        938.032500000000        -0.027044113414
   10        426.557300000000        -0.045573484536
   11        201.066600000000        -0.048374267238
   12         97.097610000000        -0.023277663815
   13         42.998720000000        -0.002581752937
   14         21.177070000000         0.000199569133
   15         10.426750000000        -0.000095089418
   16          4.585008000000         0.000049020534
   17          2.117603000000        -0.000017521802
   18          0.349225000000        -0.000005295607
   19   11718110.000000000000         0.000000219621
   20    1754604.000000000000         0.000001683763
   21     399281.299999999988         0.000008858056
   22     113084.600000000006         0.000037372212
   23      36885.930000000000         0.000136372581
   24      13312.209999999999         0.000442536772
   25       5189.988000000000         0.001310797091
   26       2151.660000000000         0.003501640841
   27        938.032500000000         0.008378293580
   28        426.557300000000         0.016656500886
   29        201.066600000000         0.024676372623
   30         97.097610000000         0.013306227875
   31         42.998720000000        -0.040492883322
   32         21.177070000000        -0.072575664591
   33         10.426750000000        -0.029585724523
   34          4.585008000000        -0.002101543319
   35          2.117603000000        -0.000044961346
   36          0.349225000000         0.000014067960
   37   11718110.000000000000         0.000001287028
   38    1754604.000000000000         0.000010112359
   39     399281.299999999988         0.000053687435
   40     113084.600000000006         0.000225781406
   41      36885.930000000000         0.000825720109
   42      13312.209999999999         0.002676465739
   43       5189.988000000000         0.007964678116
   44       2151.660000000000         0.021321450118
   45        938.032500000000         0.051772522154
   46        426.557300000000         0.104863144390
   47        201.066600000000         0.163885676642
   48         97.097610000000         0.093478834051
   49         42.998720000000        -0.353202650120
   50         21.177070000000        -0.941559944077
   51         10.426750000000        -0.341431312208
   52          4.585008000000         1.223433504429
   53          2.117603000000         1.107565355108
   54          0.349225000000        -0.019572563527
   55   11718110.000000000000         0.000000017707
   56    1754604.000000000000         0.000000159359
   57     399281.299999999988         0.000000823356
   58     113084.600000000006         0.000003461638
   59      36885.930000000000         0.000012660210
   60      13312.209999999999         0.000041070429
   61       5189.988000000000         0.000122184304
   62       2151.660000000000         0.000327580715
   63        938.032500000000         0.000796097011
   64        426.557300000000         0.001620338642
   65        201.066600000000         0.002545844244
   66         97.097610000000         0.001481368493
   67         42.998720000000        -0.005775977255
   68         21.177070000000        -0.016240676489
   69         10.426750000000        -0.006128099300
   70          4.585008000000         0.027941295505
   71          2.117603000000         0.044545355429
   72          0.349225000000        -0.063492023390
   73          0.707057000000         0.125513636146
   74          0.144821000000         0.020895578710
   75          2.211600000000        -1.495743128305
   76         10.467400000000         1.049401217076
 S 76
    1   11718110.000000000000        -0.000000482242
    2    1754604.000000000000        -0.000003771825
    3     399281.299999999988        -0.000019849442
    4     113084.600000000006        -0.000083815454
    5      36885.930000000000        -0.000304303576
    6      13312.209999999999        -0.000983145890
    7       5189.988000000000        -0.002853195862
    8       2151.660000000000        -0.007358192556
    9        938.032500000000        -0.016095908433
   10        426.557300000000        -0.027124077718
   11        201.066600000000        -0.028791026130
   12         97.097610000000        -0.013854221788
   13         42.998720000000        -0.001536587953
   14         21.177070000000         0.000118778029
   15         10.426750000000        -0.000056594592
   16          4.585008000000         0.000029175666
   17          2.117603000000        -0.000010428492
   18          0.349225000000        -0.000003151799
   19   11718110.000000000000        -0.000000824747
   20    1754604.000000000000        -0.000006323063
   21     399281.299999999988        -0.000033264807
   22     113084.600000000006        -0.000140344496
   23      36885.930000000000        -0.000512122245
   24      13312.209999999999        -0.001661865781
   25       5189.988000000000        -0.004922458356
   26       2151.660000000000        -0.013149770724
   27        938.032500000000        -0.031463146746
   28        426.557300000000        -0.062550437826
   29        201.066600000000        -0.092667597002
   30         97.097610000000        -0.049969101259
   31         42.998720000000         0.152063605556
   32         21.177070000000         0.272544613468
   33         10.426750000000         0.111103768731
   34          4.585008000000         0.007891960958
   35          2.117603000000         0.000168844097
   36          0.349225000000        -0.000052829646
   37   11718110.000000000000         0.000001640346
   38    1754604.000000000000         0.000012888432
   39     399281.299999999988         0.000068425859
   40     113084.600000000006         0.000287763546
   41      36885.930000000000         0.001052399092
   42      13312.209999999999         0.003411216562
   43       5189.988000000000         0.010151163718
   44       2151.660000000000         0.027174673944
   45        938.032500000000         0.065985259023
   46        426.557300000000         0.133650466630
   47        201.066600000000         0.208876028702
   48         97.097610000000         0.119140903734
   49         42.998720000000        -0.450164824624
   50         21.177070000000        -1.200039600366
   51         10.426750000000        -0.435161986268
   52          4.585008000000         1.559293874984
   53          2.117603000000         1.411617278841
   54          0.349225000000        -0.024945678139
   55   11718110.000000000000         0.000000050513
   56    1754604.000000000000         0.000000454613
   57     399281.299999999988         0.000002348832
   58     113084.600000000006         0.000009875199
   59      36885.930000000000         0.000036116457
   60      13312.209999999999         0.000117163806
   61       5189.988000000000         0.000348561691
   62       2151.660000000000         0.000934507002
   63        938.032500000000         0.002271068461
   64        426.557300000000         0.004622426584
   65        201.066600000000         0.007262665847
   66         97.097610000000         0.004225979017
   67         42.998720000000        -0.016477438804
   68         21.177070000000        -0.046330645217
   69         10.426750000000        -0.017481956168
   70          4.585008000000         0.079709626000
   71          2.117603000000         0.127076914548
   72          0.349225000000        -0.181127086160
   73          0.707057000000         0.324208182494
   74          0.144821000000         0.050424626593
   75          2.211600000000        -4.043344125838
   76         10.467400000000         1.646819693922
 S 76
    1   11718110.000000000000        -0.000000701123
    2    1754604.000000000000        -0.000005483783
    3     399281.299999999988        -0.000028858723
    4     113084.600000000006        -0.000121857680
    5      36885.930000000000        -0.000442421128
    6      13312.209999999999        -0.001429376939
    7       5189.988000000000        -0.004148206700
    8       2151.660000000000        -0.010697934926
    9        938.032500000000        -0.023401532330
   10        426.557300000000        -0.039435175982
   11        201.066600000000        -0.041858720283
   12         97.097610000000        -0.020142387144
   13         42.998720000000        -0.002234015732
   14         21.177070000000         0.000172689097
   15         10.426750000000        -0.000082281791
   16          4.585008000000         0.000042417941
   17          2.117603000000        -0.000015161785
   18          0.349225000000        -0.000004582340
   19   11718110.000000000000        -0.000000025613
   20    1754604.000000000000        -0.000000196367
   21     399281.299999999988        -0.000001033059
   22     113084.600000000006        -0.000004358485
   23      36885.930000000000        -0.000015904271
   24      13312.209999999999        -0.000051610264
   25       5189.988000000000        -0.000152869973
   26       2151.660000000000        -0.000408374220
   27        938.032500000000        -0.000977107379
   28        426.557300000000        -0.001942542328
   29        201.066600000000        -0.002877849235
   30         97.097610000000        -0.001551821181
   31         42.998720000000         0.004722428821
   32         21.177070000000         0.008464040643
   33         10.426750000000         0.003450395890
   34          4.585008000000         0.000245089703
   35          2.117603000000         0.000005243557
   36          0.349225000000        -0.000001640657
   37   11718110.000000000000         0.000000455438
   38    1754604.000000000000         0.000003578444
   39     399281.299999999988         0.000018998287
   40     113084.600000000006         0.000079896905
   41      36885.930000000000         0.000292196254
   42      13312.209999999999         0.000947116650
   43       5189.988000000000         0.002818447906
   44       2151.660000000000         0.007544987451
   45        938.032500000000         0.018320659607
   46        426.557300000000         0.037107753181
   47        201.066600000000         0.057993962266
   48         97.097610000000         0.033079205490
   49         42.998720000000        -0.124987256867
   50         21.177070000000        -0.333188311429
   51         10.426750000000        -0.120821752347
   52          4.585008000000         0.432934457387
   53          2.117603000000         0.391932380712
   54          0.349225000000        -0.006926111750
   55   11718110.000000000000         0.000000359179
   56    1754604.000000000000         0.000003232608
   57     399281.299999999988         0.000016701810
   58     113084.600000000006         0.000070219436
   59      36885.930000000000         0.000256812771
   60      13312.209999999999         0.000833114995
   61       5189.988000000000         0.002478512620
   62       2151.660000000000         0.006644985541
   63        938.032500000000         0.016148853945
   64        426.557300000000         0.032868622433
   65        201.066600000000         0.051642533907
   66         97.097610000000         0.030049608406
   67         42.998720000000        -0.117165887858
   68         21.177070000000        -0.329442654674
   69         10.426750000000        -0.124308695077
   70          4.585008000000         0.566790094755
   71          2.117603000000         0.903603994302
   72          0.349225000000        -1.287937774636
   73          0.707057000000         3.364355467167
   74          0.144821000000         0.271012675864
   75          2.211600000000        -4.664579764666
   76         10.467400000000         1.469115503902
 S 76
    1   11718110.000000000000         0.000000788980
    2    1754604.000000000000         0.000006170950
    3     399281.299999999988         0.000032474979
    4     113084.600000000006         0.000137127535
    5      36885.930000000000         0.000497860446
    6      13312.209999999999         0.001608490634
    7       5189.988000000000         0.004668014043
    8       2151.660000000000         0.012038481707
    9        938.032500000000         0.026333953311
   10        426.557300000000         0.044376755697
   11        201.066600000000         0.047103991741
   12         97.097610000000         0.022666408128
   13         42.998720000000         0.002513957854
   14         21.177070000000        -0.000194328583
   15         10.426750000000         0.000092592434
   16          4.585008000000        -0.000047733288
   17          2.117603000000         0.000017061692
   18          0.349225000000         0.000005156548
   19   11718110.000000000000        -0.000000978951
   20    1754604.000000000000        -0.000007505292
   21     399281.299999999988        -0.000039484360
   22     113084.600000000006        -0.000166584840
   23      36885.930000000000        -0.000607874227
   24      13312.209999999999        -0.001972586402
   25       5189.988000000000        -0.005842815063
   26       2151.660000000000        -0.015608395827
   27        938.032500000000        -0.037345841132
   28        426.557300000000        -0.074245552507
   29        201.066600000000        -0.109993745496
   30         97.097610000000        -0.059311871511
   31         42.998720000000         0.180495082099
   32         21.177070000000         0.323502538320
   33         10.426750000000         0.131876945737
   34          4.585008000000         0.009367528383
   35          2.117603000000         0.000200413038
   36          0.349225000000        -0.000062707255
   37   11718110.000000000000         0.000001687448
   38    1754604.000000000000         0.000013258519
   39     399281.299999999988         0.000070390682
   40     113084.600000000006         0.000296026568
   41      36885.930000000000         0.001082618336
   42      13312.209999999999         0.003509168364
   43       5189.988000000000         0.010442650570
   44       2151.660000000000         0.027954984497
   45        938.032500000000         0.067880000944
   46        426.557300000000         0.137488189564
   47        201.066600000000         0.214873825386
   48         97.097610000000         0.122561990020
   49         42.998720000000        -0.463091138425
   50         21.177070000000        -1.234498286606
   51         10.426750000000        -0.447657499202
   52          4.585008000000         1.604068412739
   53          2.117603000000         1.452151338623
   54          0.349225000000        -0.025661983914
   55   11718110.000000000000        -0.000001330362
   56    1754604.000000000000        -0.000011973259
   57     399281.299999999988        -0.000061861839
   58     113084.600000000006        -0.000260085796
   59      36885.930000000000        -0.000951208922
   60      13312.209999999999        -0.003085774959
   61       5189.988000000000        -0.009180163872
   62       2151.660000000000        -0.024612364570
   63        938.032500000000        -0.059813746507
   64        426.557300000000        -0.121742103618
   65        201.066600000000        -0.191278801745
   66         97.097610000000        -0.111300756447
   67         42.998720000000         0.433970778333
   68         21.177070000000         1.220222778822
   69         10.426750000000         0.460427024814
   70          4.585008000000        -2.099334055924
   71          2.117603000000        -3.346859191541
   72          0.349225000000         4.770393232386
   73          0.707057000000        -5.135823076484
   74          0.144821000000        -0.758619299733
   75          2.211600000000         4.245778229489
   76         10.467400000000        -0.848473697121
 S 76
    1   11718110.000000000000         0.000000594770
    2    1754604.000000000000         0.000004651952
    3     399281.299999999988         0.000024481162
    4     113084.600000000006         0.000103373167
    5      36885.930000000000         0.000375310552
    6      13312.209999999999         0.001212555671
    7       5189.988000000000         0.003518967894
    8       2151.660000000000         0.009075172060
    9        938.032500000000         0.019851768947
   10        426.557300000000         0.033453279510
   11        201.066600000000         0.035509197935
   12         97.097610000000         0.017087001397
   13         42.998720000000         0.001895139323
   14         21.177070000000        -0.000146493999
   15         10.426750000000         0.000069800519
   16          4.585008000000        -0.000035983591
   17          2.117603000000         0.000012861903
   18          0.349225000000         0.000003887247
   19   11718110.000000000000        -0.000001107697
   20    1754604.000000000000        -0.000008492340
   21     399281.299999999988        -0.000044677093
   22     113084.600000000006        -0.000188493025
   23      36885.930000000000        -0.000687818002
   24      13312.209999999999        -0.002232008494
   25       5189.988000000000        -0.006611225159
   26       2151.660000000000        -0.017661113362
   27        938.032500000000        -0.042257330038
   28        426.557300000000        -0.084009858156
   29        201.066600000000        -0.124459427469
   30         97.097610000000        -0.067112193853
   31         42.998720000000         0.204232654118
   32         21.177070000000         0.366047546817
   33         10.426750000000         0.149220567850
   34          4.585008000000         0.010599486490
   35          2.117603000000         0.000226770094
   36          0.349225000000        -0.000070954116
   37   11718110.000000000000         0.000002269067
   38    1754604.000000000000         0.000017828386
   39     399281.299999999988         0.000094652523
   40     113084.600000000006         0.000398059240
   41      36885.930000000000         0.001455768766
   42      13312.209999999999         0.004718687581
   43       5189.988000000000         0.014041961073
   44       2151.660000000000         0.037590341786
   45        938.032500000000         0.091276474727
   46        426.557300000000         0.184876798549
   47        201.066600000000         0.288935253678
   48         97.097610000000         0.164805925590
   49         42.998720000000        -0.622706629420
   50         21.177070000000        -1.659997791563
   51         10.426750000000        -0.601953415501
   52          4.585008000000         2.156949144080
   53          2.117603000000         1.952670199128
   54          0.349225000000        -0.034507003442
   55   11718110.000000000000        -0.000001535245
   56    1754604.000000000000        -0.000013817208
   57     399281.299999999988        -0.000071388909
   58     113084.600000000006        -0.000300140468
   59      36885.930000000000        -0.001097700432
   60      13312.209999999999        -0.003561001611
   61       5189.988000000000        -0.010593960603
   62       2151.660000000000        -0.028402806774
   63        938.032500000000        -0.069025398987
   64        426.557300000000        -0.140491070473
   65        201.066600000000        -0.220736810170
   66         97.097610000000        -0.128441697268
   67         42.998720000000         0.500804712503
   68         21.177070000000         1.408143931454
   69         10.426750000000         0.531335369345
   70          4.585008000000        -2.422643276499
   71          2.117603000000        -3.862294280843
   72          0.349225000000         5.505060549120
   73          0.707057000000        -3.655170961120
   74          0.144821000000        -3.106107076923
   75          2.211600000000         3.087307634400
   76         10.467400000000        -0.378333213283
 S 76
    1   11718110.000000000000        -0.000018501546
    2    1754604.000000000000        -0.000144708517
    3     399281.299999999988        -0.000761536830
    4     113084.600000000006        -0.003215634693
    5      36885.930000000000        -0.011674805626
    6      13312.209999999999        -0.037719034833
    7       5189.988000000000        -0.109464724623
    8       2151.660000000000        -0.282301868135
    9        938.032500000000        -0.617530050390
   10        426.557300000000        -1.040632975152
   11        201.066600000000        -1.104586540803
   12         97.097610000000        -0.531526276677
   13         42.998720000000        -0.058952201428
   14         21.177070000000         0.004556996746
   15         10.426750000000        -0.002171288524
   16          4.585008000000         0.001119343506
   17          2.117603000000        -0.000400095922
   18          0.349225000000        -0.000120920816
   19   11718110.000000000000         0.000025904731
   20    1754604.000000000000         0.000198602939
   21     399281.299999999988         0.001044824156
   22     113084.600000000006         0.004408121750
   23      36885.930000000000         0.016085398890
   24      13312.209999999999         0.052198033260
   25       5189.988000000000         0.154610948694
   26       2151.660000000000         0.413025033395
   27        938.032500000000         0.988235271041
   28        426.557300000000         1.964665180437
   29        201.066600000000         2.910623930247
   30         97.097610000000         1.569494263409
   31         42.998720000000        -4.776210709809
   32         21.177070000000        -8.560434280016
   33         10.426750000000        -3.489691094530
   34          4.585008000000        -0.247880933186
   35          2.117603000000        -0.005303274126
   36          0.349225000000         0.001659341945
   37   11718110.000000000000        -0.000009595104
   38    1754604.000000000000        -0.000075390102
   39     399281.299999999988        -0.000400252903
   40     113084.600000000006        -0.001683255357
   41      36885.930000000000        -0.006155944471
   42      13312.209999999999        -0.019953703778
   43       5189.988000000000        -0.059378614683
   44       2151.660000000000        -0.158956602224
   45        938.032500000000        -0.385976758826
   46        426.557300000000        -0.781780274703
   47        201.066600000000        -1.221807624129
   48         97.097610000000        -0.696907469145
   49         42.998720000000         2.633211758468
   50         21.177070000000         7.019558644885
   51         10.426750000000         2.545453568115
   52          4.585008000000        -9.120994671111
   53          2.117603000000        -8.257169405021
   54          0.349225000000         0.145918226849
   55   11718110.000000000000        -0.000000870920
   56    1754604.000000000000        -0.000007838278
   57     399281.299999999988        -0.000040497770
   58     113084.600000000006        -0.000170264818
   59      36885.930000000000        -0.000622707647
   60      13312.209999999999        -0.002020098443
   61       5189.988000000000        -0.006009781981
   62       2151.660000000000        -0.016112451495
   63        938.032500000000        -0.039156989025
   64        426.557300000000        -0.079698305049
   65        201.066600000000        -0.125220411327
   66         97.097610000000        -0.072862891111
   67         42.998720000000         0.284098388693
   68         21.177070000000         0.798817207557
   69         10.426750000000         0.301417935011
   70          4.585008000000        -1.374326227462
   71          2.117603000000        -2.191016886321
   72          0.349225000000         3.122931539207
   73          0.707057000000        -4.765979883597
   74          0.144821000000        -0.868360827816
   75          2.211600000000        18.760325097513
   76         10.467400000000         7.370064148927
 P 37
    1       9366.308999999999         0.000503571993
    2       2219.554000000000         0.004373137728
    3        719.452900000000         0.023722037584
    4        273.464500000000         0.092147604671
    5        114.752300000000         0.254747918519
    6         51.155570000000         0.458053654949
    7         23.682680000000         0.431605592094
    8         10.875480000000         0.139350308058
    9          4.955131000000         0.006094994504
   10          2.217267000000         0.002087485034
   11          0.322154000000         0.000261724134
   12       9366.308999999999        -0.000016034342
   13       2219.554000000000        -0.000140067433
   14        719.452900000000        -0.000766935615
   15        273.464500000000        -0.003062988091
   16        114.752300000000        -0.008857435612
   17         51.155570000000        -0.017088748826
   18         23.682680000000        -0.015029035089
   19         10.875480000000         0.016664938801
   20          4.955131000000         0.050693550133
   21          2.217267000000         0.036481735100
   22          0.322154000000        -0.000445605543
   23       9366.308999999999        -0.000000495273
   24       2219.554000000000        -0.000004357550
   25        719.452900000000        -0.000023730579
   26        273.464500000000        -0.000095806580
   27        114.752300000000        -0.000276454656
   28         51.155570000000        -0.000545586502
   29         23.682680000000        -0.000457998687
   30         10.875480000000         0.000653674996
   31          4.955131000000         0.002129273178
   32          2.217267000000         0.001548911302
   33          0.322154000000        -0.006126694951
   34          0.806410000000         0.010417297158
   35          0.117619000000         0.001974733479
   36          2.691200000000        -0.087858245746
   37         13.832700000000        -0.234578372743
 P 37
    1       9366.308999999999         0.000115226965
    2       2219.554000000000         0.001000658085
    3        719.452900000000         0.005428058794
    4        273.464500000000         0.021085145580
    5        114.752300000000         0.058291227075
    6         51.155570000000         0.104811492743
    7         23.682680000000         0.098759666897
    8         10.875480000000         0.031886032660
    9          4.955131000000         0.001394652057
   10          2.217267000000         0.000477656755
   11          0.322154000000         0.000059887520
   12       9366.308999999999         0.000193041324
   13       2219.554000000000         0.001686305755
   14        719.452900000000         0.009233323669
   15        273.464500000000         0.036876055680
   16        114.752300000000         0.106636813194
   17         51.155570000000         0.205735587139
   18         23.682680000000         0.180938194462
   19         10.875480000000        -0.200633235577
   20          4.955131000000        -0.610311931372
   21          2.217267000000        -0.439212447151
   22          0.322154000000         0.005364753083
   23       9366.308999999999        -0.000001906998
   24       2219.554000000000        -0.000016778306
   25        719.452900000000        -0.000091372198
   26        273.464500000000        -0.000368893562
   27        114.752300000000        -0.001064460740
   28         51.155570000000        -0.002100725741
   29         23.682680000000        -0.001763477701
   30         10.875480000000         0.002516909573
   31          4.955131000000         0.008198551385
   32          2.217267000000         0.005963926578
   33          0.322154000000        -0.023590220313
   34          0.806410000000         0.046288822143
   35          0.117619000000         0.005006950399
   36          2.691200000000         0.558736495064
   37         13.832700000000        -0.698677448036
 P 37
    1       9366.308999999999         0.000175414259
    2       2219.554000000000         0.001523338715
    3        719.452900000000         0.008263334131
    4        273.464500000000         0.032098694897
    5        114.752300000000         0.088738885197
    6         51.155570000000         0.159558401643
    7         23.682680000000         0.150345483921
    8         10.875480000000         0.048541283717
    9          4.955131000000         0.002123130272
   10          2.217267000000         0.000727154498
   11          0.322154000000         0.000091168980
   12       9366.308999999999         0.000051871558
   13       2219.554000000000         0.000453122182
   14        719.452900000000         0.002481058819
   15        273.464500000000         0.009908854757
   16        114.752300000000         0.028654059503
   17         51.155570000000         0.055282594999
   18         23.682680000000         0.048619361693
   19         10.875480000000        -0.053911557353
   20          4.955131000000        -0.163995095813
   21          2.217267000000        -0.118019464556
   22          0.322154000000         0.001441546774
   23       9366.308999999999         0.000001387357
   24       2219.554000000000         0.000012206362
   25        719.452900000000         0.000066474061
   26        273.464500000000         0.000268373242
   27        114.752300000000         0.000774404352
   28         51.155570000000         0.001528296062
   29         23.682680000000         0.001282945210
   30         10.875480000000        -0.001831073383
   31          4.955131000000        -0.005964516715
   32          2.217267000000        -0.004338807930
   33          0.322154000000         0.017162088370
   34          0.806410000000        -0.023346776716
   35          0.117619000000        -0.005847741670
   36          2.691200000000         1.380210162984
   37         13.832700000000        -1.012215820582
 P 37
    1       9366.308999999999         0.000463214797
    2       2219.554000000000         0.004022666343
    3        719.452900000000         0.021820909404
    4        273.464500000000         0.084762724374
    5        114.752300000000         0.234331946873
    6         51.155570000000         0.421344383738
    7         23.682680000000         0.397015917795
    8         10.875480000000         0.128182515385
    9          4.955131000000         0.005606530317
   10          2.217267000000         0.001920190104
   11          0.322154000000         0.000240749076
   12       9366.308999999999        -0.000292962637
   13       2219.554000000000        -0.002559164898
   14        719.452900000000        -0.014012641399
   15        273.464500000000        -0.055963698767
   16        114.752300000000        -0.161833753121
   17         51.155570000000        -0.312227655911
   18         23.682680000000        -0.274594731554
   19         10.875480000000         0.304484244622
   20          4.955131000000         0.926219262095
   21          2.217267000000         0.666555916396
   22          0.322154000000        -0.008141636082
   23       9366.308999999999         0.000036913747
   24       2219.554000000000         0.000324777604
   25        719.452900000000         0.001768691301
   26        273.464500000000         0.007140671293
   27        114.752300000000         0.020604762528
   28         51.155570000000         0.040663740254
   29         23.682680000000         0.034135631207
   30         10.875480000000        -0.048719809105
   31          4.955131000000        -0.158699328232
   32          2.217267000000        -0.115443704273
   33          0.322154000000         0.456635805620
   34          0.806410000000        -1.615734298119
   35          0.117619000000        -0.113636365568
   36          2.691200000000        -0.057083665181
   37         13.832700000000        -1.272318801224
 P 37
    1       9366.308999999999         0.000783210977
    2       2219.554000000000         0.006801588495
    3        719.452900000000         0.036895142097
    4        273.464500000000         0.143318168022
    5        114.752300000000         0.396212198025
    6         51.155570000000         0.712415812840
    7         23.682680000000         0.671280854101
    8         10.875480000000         0.216733044071
    9          4.955131000000         0.009479610996
   10          2.217267000000         0.003246688093
   11          0.322154000000         0.000407062382
   12       9366.308999999999        -0.000702621402
   13       2219.554000000000        -0.006137724745
   14        719.452900000000        -0.033606953548
   15        273.464500000000        -0.134219478775
   16        114.752300000000        -0.388130921843
   17         51.155570000000        -0.748825294949
   18         23.682680000000        -0.658569082383
   19         10.875480000000         0.730254030898
   20          4.955131000000         2.221380454280
   21          2.217267000000         1.598621778841
   22          0.322154000000        -0.019526338956
   23       9366.308999999999         0.000147285238
   24       2219.554000000000         0.001295857241
   25        719.452900000000         0.007057048897
   26        273.464500000000         0.028491159790
   27        114.752300000000         0.082212660064
   28         51.155570000000         0.162247647837
   29         23.682680000000         0.136200601229
   30         10.875480000000        -0.194391228670
   31          4.955131000000        -0.633207682276
   32          2.217267000000        -0.460618461530
   33          0.322154000000         1.821969275752
   34          0.806410000000        -1.113341586225
   35          0.117619000000        -0.341596723305
   36          2.691200000000        -2.116527858519
   37         13.832700000000        -1.584688313619
 P 37
    1       9366.308999999999         0.001548334586
    2       2219.554000000000         0.013446102031
    3        719.452900000000         0.072938232804
    4        273.464500000000         0.283326565776
    5        114.752300000000         0.783274325472
    6         51.155570000000         1.408379191857
    7         23.682680000000         1.327059239517
    8         10.875480000000         0.428460884719
    9          4.955131000000         0.018740301145
   10          2.217267000000         0.006418397614
   11          0.322154000000         0.000804724121
   12       9366.308999999999        -0.001100320447
   13       2219.554000000000        -0.009611810879
   14        719.452900000000        -0.052629222576
   15        273.464500000000        -0.210190632498
   16        114.752300000000        -0.607821492816
   17         51.155570000000        -1.172676751631
   18         23.682680000000        -1.031333553316
   19         10.875480000000         1.143593746893
   20          4.955131000000         3.478730263030
   21          2.217267000000         2.503476588388
   22          0.322154000000        -0.030578672880
   23       9366.308999999999        -0.000031782244
   24       2219.554000000000        -0.000279629186
   25        719.452900000000        -0.001522819623
   26        273.464500000000        -0.006148022757
   27        114.752300000000        -0.017740425758
   28         51.155570000000        -0.035010938079
   29         23.682680000000        -0.029390323247
   30         10.875480000000         0.041947105926
   31          4.955131000000         0.136638005241
   32          2.217267000000         0.099395489856
   33          0.322154000000        -0.393157339080
   34          0.806410000000         1.299722541938
   35          0.117619000000        -0.590294094731
   36          2.691200000000        -6.117622414873
   37         13.832700000000        -3.045551291367
 P 37
    1       9366.308999999999         0.000979724448
    2       2219.554000000000         0.008508157741
    3        719.452900000000         0.046152408234
    4        273.464500000000         0.179277764547
    5        114.752300000000         0.495624791529
    6         51.155570000000         0.891166250008
    7         23.682680000000         0.839710223536
    8         10.875480000000         0.271112980167
    9          4.955131000000         0.011858116047
   10          2.217267000000         0.004061306334
   11          0.322154000000         0.000509197367
   12       9366.308999999999        -0.000533419522
   13       2219.554000000000        -0.004659667624
   14        719.452900000000        -0.025513889902
   15        273.464500000000        -0.101897394518
   16        114.752300000000        -0.294663114688
   17         51.155570000000        -0.568496817308
   18         23.682680000000        -0.499975668340
   19         10.875480000000         0.554397795043
   20          4.955131000000         1.686438381298
   21          2.217267000000         1.213649431291
   22          0.322154000000        -0.014824100662
   23       9366.308999999999        -0.000182177594
   24       2219.554000000000        -0.001602850078
   25        719.452900000000        -0.008728886962
   26        273.464500000000        -0.035240809134
   27        114.752300000000        -0.101689109291
   28         51.155570000000        -0.200684648573
   29         23.682680000000        -0.168466971062
   30         10.875480000000         0.240443149293
   31          4.955131000000         0.783216662216
   32          2.217267000000         0.569740488141
   33          0.322154000000        -2.253599782119
   34          0.806410000000         1.799947895055
   35          0.117619000000         1.638894909506
   36          2.691200000000        -4.410444496005
   37         13.832700000000        -1.969496939335
 D 11
    1        446.161300000000         0.003818282104
    2        133.964800000000         0.033091868863
    3         51.345910000000         0.153318272992
    4         21.916910000000         0.455787714887
    5          9.893725000000         0.863862672510
    6          4.492527000000         1.052895096541
    7          2.002293000000         0.741690151655
    8          0.808409000000        -0.126474196830
    9          0.300600000000         0.032161557233
   10          2.793800000000        -1.211818362410
   11          7.471600000000        -0.832354765981
 D 11
    1        446.161300000000         0.003355777476
    2        133.964800000000         0.029083484442
    3         51.345910000000         0.134746986510
    4         21.916910000000         0.400578612522
    5          9.893725000000         0.759223865542
    6          4.492527000000         0.925358984297
    7          2.002293000000         0.651849977888
    8          0.808409000000        -0.055731650264
    9          0.300600000000         0.007444609303
   10          2.793800000000        -1.788838035428
   11          7.471600000000        -1.486270998466
 D 11
    1        446.161300000000         0.003164264759
    2        133.964800000000         0.027423703019
    3         51.345910000000         0.127057036376
    4         21.916910000000         0.377717770623
    5          9.893725000000         0.715895299779
    6          4.492527000000         0.872549161760
    7          2.002293000000         0.614649191774
    8          0.808409000000         0.691102149309
    9          0.300600000000        -0.147665953312
   10          2.793800000000        -0.537855189926
   11          7.471600000000        -2.021243159941
 D 11
    1        446.161300000000         0.003164210906
    2        133.964800000000         0.027423236285
    3         51.345910000000         0.127054873950
    4         21.916910000000         0.377711342119
    5          9.893725000000         0.715883115720
    6          4.492527000000         0.872534311557
    7          2.002293000000         0.614638730856
    8          0.808409000000        -1.041458926802
    9          0.300600000000        -0.129542709221
   10          2.793800000000         0.418396234886
   11          7.471600000000        -2.302634913579
 D 11
    1        446.161300000000         0.001350385815
    2        133.964800000000         0.011703375782
    3         51.345910000000         0.054223028941
    4         21.916910000000         0.161195335515
    5          9.893725000000         0.305516425269
    6          4.492527000000         0.372370234662
    7          2.002293000000         0.262308502267
    8          0.808409000000        -1.288727726182
    9          0.300600000000         1.415918696946
   10          2.793800000000         0.405146164496
   11          7.471600000000        -1.036853253497
 F 3
    1          0.662200000000        -0.000971439177
    2          3.951800000000         0.553091132073
    3         11.866400000000         0.592813774364
 F 3
    1          0.662200000000        -0.413899805207
    2          3.951800000000        -0.839655235672
    3         11.866400000000         0.881001572439
 F 3
    1          0.662200000000         0.938537726937
    2          3.951800000000        -0.660443118179
    3         11.866400000000         0.511093406240
 G 1
    1          8.899500000000         1.000000000000
 end
  // -----------------------------------------------
  // The basis set
  // -----------------------------------------------
  BAS[ATNO] = new BFNGauss[NSH];
  // Basis function   1 L = s
  InitBFNGauss(BAS[ATNO][  0]);
  BAS[ATNO][  0].l  = 0;
  BAS[ATNO][  0].ng = 76;
  BAS[ATNO][  0].a[  0] =  11718110.000000000000;     BAS[ATNO][  0].d[  0] =         0.000005577060;
  BAS[ATNO][  0].a[  1] =   1754604.000000000000;     BAS[ATNO][  0].d[  1] =         0.000043620579;
  BAS[ATNO][  0].a[  2] =    399281.299999999988;     BAS[ATNO][  0].d[  2] =         0.000229555785;
[...]
  BAS[ATNO][ 12].a[ 28] =        23.682680000000;     BAS[ATNO][ 12].d[ 28] =         0.136200601229;
  BAS[ATNO][ 12].a[ 29] =        10.875480000000;     BAS[ATNO][ 12].d[ 29] =        -0.194391228670;
  BAS[ATNO][ 12].a[ 30] =         4.955131000000;     BAS[ATNO][ 12].d[ 30] =        -0.633207682276;
  BAS[ATNO][ 12].a[ 31] =         2.217267000000;     BAS[ATNO][ 12].d[ 31] =        -0.460618461530;
  BAS[ATNO][ 12].a[ 32] =         0.322154000000;     BAS[ATNO][ 12].d[ 32] =         1.821969275752;
  BAS[ATNO][ 12].a[ 33] =         0.806410000000;     BAS[ATNO][ 12].d[ 33] =        -1.113341586225;
  BAS[ATNO][ 12].a[ 34] =         0.117619000000;     BAS[ATNO][ 12].d[ 34] =        -0.341596723305;
  BAS[ATNO][ 12].a[ 35] =         2.691200000000;     BAS[ATNO][ 12].d[ 35] =        -2.116527858519;
  BAS[ATNO][ 12].a[ 36] =        13.832700000000;     BAS[ATNO][ 12].d[ 36] =        -1.584688313619;

  // Basis function  14 L = p
  InitBFNGauss(BAS[ATNO][ 13]);
  BAS[ATNO][ 13].l  = 1;
  BAS[ATNO][ 13].ng = 37;
  BAS[ATNO][ 13].a[  0] =      9366.308999999999;     BAS[ATNO][ 13].d[  0] =        -0.001548334586;
  BAS[ATNO][ 13].a[  1] =      2219.554000000000;     BAS[ATNO][ 13].d[  1] =        -0.013446102031;
  BAS[ATNO][ 13].a[  2] =       719.452900000000;     BAS[ATNO][ 13].d[  2] =        -0.072938232804;
  BAS[ATNO][ 13].a[  3] =       273.464500000000;     BAS[ATNO][ 13].d[  3] =        -0.283326565776;
  BAS[ATNO][ 13].a[  4] =       114.752300000000;     BAS[ATNO][ 13].d[  4] =        -0.783274325472;
  BAS[ATNO][ 13].a[  5] =        51.155570000000;     BAS[ATNO][ 13].d[  5] =        -1.408379191857;
  BAS[ATNO][ 13].a[  6] =        23.682680000000;     BAS[ATNO][ 13].d[  6] =        -1.327059239517;
  BAS[ATNO][ 13].a[  7] =        10.875480000000;     BAS[ATNO][ 13].d[  7] =        -0.428460884719;
  BAS[ATNO][ 13].a[  8] =         4.955131000000;     BAS[ATNO][ 13].d[  8] =        -0.018740301145;
  BAS[ATNO][ 13].a[  9] =         2.217267000000;     BAS[ATNO][ 13].d[  9] =        -0.006418397614;
  BAS[ATNO][ 13].a[ 10] =         0.322154000000;     BAS[ATNO][ 13].d[ 10] =        -0.000804724121;
  BAS[ATNO][ 13].a[ 11] =      9366.308999999999;     BAS[ATNO][ 13].d[ 11] =         0.001100320447;
  BAS[ATNO][ 13].a[ 12] =      2219.554000000000;     BAS[ATNO][ 13].d[ 12] =         0.009611810879;
  BAS[ATNO][ 13].a[ 13] =       719.452900000000;     BAS[ATNO][ 13].d[ 13] =         0.052629222576;
  BAS[ATNO][ 13].a[ 14] =       273.464500000000;     BAS[ATNO][ 13].d[ 14] =         0.210190632498;
  BAS[ATNO][ 13].a[ 15] =       114.752300000000;     BAS[ATNO][ 13].d[ 15] =         0.607821492816;
  BAS[ATNO][ 13].a[ 16] =        51.155570000000;     BAS[ATNO][ 13].d[ 16] =         1.172676751631;
  BAS[ATNO][ 13].a[ 17] =        23.682680000000;     BAS[ATNO][ 13].d[ 17] =         1.031333553316;
  BAS[ATNO][ 13].a[ 18] =        10.875480000000;     BAS[ATNO][ 13].d[ 18] =        -1.143593746893;
  BAS[ATNO][ 13].a[ 19] =         4.955131000000;     BAS[ATNO][ 13].d[ 19] =        -3.478730263030;
  BAS[ATNO][ 13].a[ 20] =         2.217267000000;     BAS[ATNO][ 13].d[ 20] =        -2.503476588388;
  BAS[ATNO][ 13].a[ 21] =         0.322154000000;     BAS[ATNO][ 13].d[ 21] =         0.030578672880;
  BAS[ATNO][ 13].a[ 22] =      9366.308999999999;     BAS[ATNO][ 13].d[ 22] =         0.000031782244;
  BAS[ATNO][ 13].a[ 23] =      2219.554000000000;     BAS[ATNO][ 13].d[ 23] =         0.000279629186;
  BAS[ATNO][ 13].a[ 24] =       719.452900000000;     BAS[ATNO][ 13].d[ 24] =         0.001522819623;
  BAS[ATNO][ 13].a[ 25] =       273.464500000000;     BAS[ATNO][ 13].d[ 25] =         0.006148022757;
  BAS[ATNO][ 13].a[ 26] =       114.752300000000;     BAS[ATNO][ 13].d[ 26] =         0.017740425758;
  BAS[ATNO][ 13].a[ 27] =        51.155570000000;     BAS[ATNO][ 13].d[ 27] =         0.035010938079;
  BAS[ATNO][ 13].a[ 28] =        23.682680000000;     BAS[ATNO][ 13].d[ 28] =         0.029390323247;
  BAS[ATNO][ 13].a[ 29] =        10.875480000000;     BAS[ATNO][ 13].d[ 29] =        -0.041947105926;
  BAS[ATNO][ 13].a[ 30] =         4.955131000000;     BAS[ATNO][ 13].d[ 30] =        -0.136638005241;
  BAS[ATNO][ 13].a[ 31] =         2.217267000000;     BAS[ATNO][ 13].d[ 31] =        -0.099395489856;
  BAS[ATNO][ 13].a[ 32] =         0.322154000000;     BAS[ATNO][ 13].d[ 32] =         0.393157339080;
  BAS[ATNO][ 13].a[ 33] =         0.806410000000;     BAS[ATNO][ 13].d[ 33] =        -1.299722541938;
  BAS[ATNO][ 13].a[ 34] =         0.117619000000;     BAS[ATNO][ 13].d[ 34] =         0.590294094731;
  BAS[ATNO][ 13].a[ 35] =         2.691200000000;     BAS[ATNO][ 13].d[ 35] =         6.117622414873;
  BAS[ATNO][ 13].a[ 36] =        13.832700000000;     BAS[ATNO][ 13].d[ 36] =         3.045551291367;

  // Basis function  15 L = p
  InitBFNGauss(BAS[ATNO][ 14]);
  BAS[ATNO][ 14].l  = 1;
  BAS[ATNO][ 14].ng = 37;
  BAS[ATNO][ 14].a[  0] =      9366.308999999999;     BAS[ATNO][ 14].d[  0] =        -0.000979724448;
  BAS[ATNO][ 14].a[  1] =      2219.554000000000;     BAS[ATNO][ 14].d[  1] =        -0.008508157741;
  BAS[ATNO][ 14].a[  2] =       719.452900000000;     BAS[ATNO][ 14].d[  2] =        -0.046152408234;
  BAS[ATNO][ 14].a[  3] =       273.464500000000;     BAS[ATNO][ 14].d[  3] =        -0.179277764547;
  BAS[ATNO][ 14].a[  4] =       114.752300000000;     BAS[ATNO][ 14].d[  4] =        -0.495624791529;
  BAS[ATNO][ 14].a[  5] =        51.155570000000;     BAS[ATNO][ 14].d[  5] =        -0.891166250008;
  BAS[ATNO][ 14].a[  6] =        23.682680000000;     BAS[ATNO][ 14].d[  6] =        -0.839710223536;
  BAS[ATNO][ 14].a[  7] =        10.875480000000;     BAS[ATNO][ 14].d[  7] =        -0.271112980167;
  BAS[ATNO][ 14].a[  8] =         4.955131000000;     BAS[ATNO][ 14].d[  8] =        -0.011858116047;
  BAS[ATNO][ 14].a[  9] =         2.217267000000;     BAS[ATNO][ 14].d[  9] =        -0.004061306334;
  BAS[ATNO][ 14].a[ 10] =         0.322154000000;     BAS[ATNO][ 14].d[ 10] =        -0.000509197367;
  BAS[ATNO][ 14].a[ 11] =      9366.308999999999;     BAS[ATNO][ 14].d[ 11] =         0.000533419522;
  BAS[ATNO][ 14].a[ 12] =      2219.554000000000;     BAS[ATNO][ 14].d[ 12] =         0.004659667624;
  BAS[ATNO][ 14].a[ 13] =       719.452900000000;     BAS[ATNO][ 14].d[ 13] =         0.025513889902;
  BAS[ATNO][ 14].a[ 14] =       273.464500000000;     BAS[ATNO][ 14].d[ 14] =         0.101897394518;
  BAS[ATNO][ 14].a[ 15] =       114.752300000000;     BAS[ATNO][ 14].d[ 15] =         0.294663114688;
  BAS[ATNO][ 14].a[ 16] =        51.155570000000;     BAS[ATNO][ 14].d[ 16] =         0.568496817308;
  BAS[ATNO][ 14].a[ 17] =        23.682680000000;     BAS[ATNO][ 14].d[ 17] =         0.499975668340;
  BAS[ATNO][ 14].a[ 18] =        10.875480000000;     BAS[ATNO][ 14].d[ 18] =        -0.554397795043;
  BAS[ATNO][ 14].a[ 19] =         4.955131000000;     BAS[ATNO][ 14].d[ 19] =        -1.686438381298;
  BAS[ATNO][ 14].a[ 20] =         2.217267000000;     BAS[ATNO][ 14].d[ 20] =        -1.213649431291;
  BAS[ATNO][ 14].a[ 21] =         0.322154000000;     BAS[ATNO][ 14].d[ 21] =         0.014824100662;
  BAS[ATNO][ 14].a[ 22] =      9366.308999999999;     BAS[ATNO][ 14].d[ 22] =         0.000182177594;
  BAS[ATNO][ 14].a[ 23] =      2219.554000000000;     BAS[ATNO][ 14].d[ 23] =         0.001602850078;
  BAS[ATNO][ 14].a[ 24] =       719.452900000000;     BAS[ATNO][ 14].d[ 24] =         0.008728886962;
  BAS[ATNO][ 14].a[ 25] =       273.464500000000;     BAS[ATNO][ 14].d[ 25] =         0.035240809134;
  BAS[ATNO][ 14].a[ 26] =       114.752300000000;     BAS[ATNO][ 14].d[ 26] =         0.101689109291;
  BAS[ATNO][ 14].a[ 27] =        51.155570000000;     BAS[ATNO][ 14].d[ 27] =         0.200684648573;
  BAS[ATNO][ 14].a[ 28] =        23.682680000000;     BAS[ATNO][ 14].d[ 28] =         0.168466971062;
  BAS[ATNO][ 14].a[ 29] =        10.875480000000;     BAS[ATNO][ 14].d[ 29] =        -0.240443149293;
  BAS[ATNO][ 14].a[ 30] =         4.955131000000;     BAS[ATNO][ 14].d[ 30] =        -0.783216662216;
  BAS[ATNO][ 14].a[ 31] =         2.217267000000;     BAS[ATNO][ 14].d[ 31] =        -0.569740488141;
  BAS[ATNO][ 14].a[ 32] =         0.322154000000;     BAS[ATNO][ 14].d[ 32] =         2.253599782119;
  BAS[ATNO][ 14].a[ 33] =         0.806410000000;     BAS[ATNO][ 14].d[ 33] =        -1.799947895055;
  BAS[ATNO][ 14].a[ 34] =         0.117619000000;     BAS[ATNO][ 14].d[ 34] =        -1.638894909506;
  BAS[ATNO][ 14].a[ 35] =         2.691200000000;     BAS[ATNO][ 14].d[ 35] =         4.410444496005;
  BAS[ATNO][ 14].a[ 36] =        13.832700000000;     BAS[ATNO][ 14].d[ 36] =         1.969496939335;

  // Basis function  16 L = d
  InitBFNGauss(BAS[ATNO][ 15]);
  BAS[ATNO][ 15].l  = 2;
  BAS[ATNO][ 15].ng = 11;
  BAS[ATNO][ 15].a[  0] =       446.161300000000;     BAS[ATNO][ 15].d[  0] =        -0.003818282104;
  BAS[ATNO][ 15].a[  1] =       133.964800000000;     BAS[ATNO][ 15].d[  1] =        -0.033091868863;
  BAS[ATNO][ 15].a[  2] =        51.345910000000;     BAS[ATNO][ 15].d[  2] =        -0.153318272992;
  BAS[ATNO][ 15].a[  3] =        21.916910000000;     BAS[ATNO][ 15].d[  3] =        -0.455787714887;
  BAS[ATNO][ 15].a[  4] =         9.893725000000;     BAS[ATNO][ 15].d[  4] =        -0.863862672510;
  BAS[ATNO][ 15].a[  5] =         4.492527000000;     BAS[ATNO][ 15].d[  5] =        -1.052895096541;
  BAS[ATNO][ 15].a[  6] =         2.002293000000;     BAS[ATNO][ 15].d[  6] =        -0.741690151655;
  BAS[ATNO][ 15].a[  7] =         0.808409000000;     BAS[ATNO][ 15].d[  7] =         0.126474196830;
  BAS[ATNO][ 15].a[  8] =         0.300600000000;     BAS[ATNO][ 15].d[  8] =        -0.032161557233;
  BAS[ATNO][ 15].a[  9] =         2.793800000000;     BAS[ATNO][ 15].d[  9] =         1.211818362410;
  BAS[ATNO][ 15].a[ 10] =         7.471600000000;     BAS[ATNO][ 15].d[ 10] =         0.832354765981;

  // Basis function  17 L = d
  InitBFNGauss(BAS[ATNO][ 16]);
  BAS[ATNO][ 16].l  = 2;
  BAS[ATNO][ 16].ng = 11;
  BAS[ATNO][ 16].a[  0] =       446.161300000000;     BAS[ATNO][ 16].d[  0] =        -0.003355777476;
  BAS[ATNO][ 16].a[  1] =       133.964800000000;     BAS[ATNO][ 16].d[  1] =        -0.029083484442;
  BAS[ATNO][ 16].a[  2] =        51.345910000000;     BAS[ATNO][ 16].d[  2] =        -0.134746986510;
  BAS[ATNO][ 16].a[  3] =        21.916910000000;     BAS[ATNO][ 16].d[  3] =        -0.400578612522;
  BAS[ATNO][ 16].a[  4] =         9.893725000000;     BAS[ATNO][ 16].d[  4] =        -0.759223865542;
  BAS[ATNO][ 16].a[  5] =         4.492527000000;     BAS[ATNO][ 16].d[  5] =        -0.925358984297;
  BAS[ATNO][ 16].a[  6] =         2.002293000000;     BAS[ATNO][ 16].d[  6] =        -0.651849977888;
  BAS[ATNO][ 16].a[  7] =         0.808409000000;     BAS[ATNO][ 16].d[  7] =         0.055731650264;
  BAS[ATNO][ 16].a[  8] =         0.300600000000;     BAS[ATNO][ 16].d[  8] =        -0.007444609303;
  BAS[ATNO][ 16].a[  9] =         2.793800000000;     BAS[ATNO][ 16].d[  9] =         1.788838035428;
  BAS[ATNO][ 16].a[ 10] =         7.471600000000;     BAS[ATNO][ 16].d[ 10] =         1.486270998466;

  // Basis function  18 L = d
  InitBFNGauss(BAS[ATNO][ 17]);
  BAS[ATNO][ 17].l  = 2;
  BAS[ATNO][ 17].ng = 11;
  BAS[ATNO][ 17].a[  0] =       446.161300000000;     BAS[ATNO][ 17].d[  0] =        -0.003164264759;
  BAS[ATNO][ 17].a[  1] =       133.964800000000;     BAS[ATNO][ 17].d[  1] =        -0.027423703019;
  BAS[ATNO][ 17].a[  2] =        51.345910000000;     BAS[ATNO][ 17].d[  2] =        -0.127057036376;
  BAS[ATNO][ 17].a[  3] =        21.916910000000;     BAS[ATNO][ 17].d[  3] =        -0.377717770623;
  BAS[ATNO][ 17].a[  4] =         9.893725000000;     BAS[ATNO][ 17].d[  4] =        -0.715895299779;
  BAS[ATNO][ 17].a[  5] =         4.492527000000;     BAS[ATNO][ 17].d[  5] =        -0.872549161760;
  BAS[ATNO][ 17].a[  6] =         2.002293000000;     BAS[ATNO][ 17].d[  6] =        -0.614649191774;
  BAS[ATNO][ 17].a[  7] =         0.808409000000;     BAS[ATNO][ 17].d[  7] =        -0.691102149309;
  BAS[ATNO][ 17].a[  8] =         0.300600000000;     BAS[ATNO][ 17].d[  8] =         0.147665953312;
  BAS[ATNO][ 17].a[  9] =         2.793800000000;     BAS[ATNO][ 17].d[  9] =         0.537855189926;
  BAS[ATNO][ 17].a[ 10] =         7.471600000000;     BAS[ATNO][ 17].d[ 10] =         2.021243159941;

  // Basis function  19 L = d
  InitBFNGauss(BAS[ATNO][ 18]);
  BAS[ATNO][ 18].l  = 2;
  BAS[ATNO][ 18].ng = 11;
  BAS[ATNO][ 18].a[  0] =       446.161300000000;     BAS[ATNO][ 18].d[  0] =        -0.003164210906;
  BAS[ATNO][ 18].a[  1] =       133.964800000000;     BAS[ATNO][ 18].d[  1] =        -0.027423236285;
  BAS[ATNO][ 18].a[  2] =        51.345910000000;     BAS[ATNO][ 18].d[  2] =        -0.127054873950;
  BAS[ATNO][ 18].a[  3] =        21.916910000000;     BAS[ATNO][ 18].d[  3] =        -0.377711342119;
  BAS[ATNO][ 18].a[  4] =         9.893725000000;     BAS[ATNO][ 18].d[  4] =        -0.715883115720;
  BAS[ATNO][ 18].a[  5] =         4.492527000000;     BAS[ATNO][ 18].d[  5] =        -0.872534311557;
  BAS[ATNO][ 18].a[  6] =         2.002293000000;     BAS[ATNO][ 18].d[  6] =        -0.614638730856;
  BAS[ATNO][ 18].a[  7] =         0.808409000000;     BAS[ATNO][ 18].d[  7] =         1.041458926802;
  BAS[ATNO][ 18].a[  8] =         0.300600000000;     BAS[ATNO][ 18].d[  8] =         0.129542709221;
  BAS[ATNO][ 18].a[  9] =         2.793800000000;     BAS[ATNO][ 18].d[  9] =        -0.418396234886;
  BAS[ATNO][ 18].a[ 10] =         7.471600000000;     BAS[ATNO][ 18].d[ 10] =         2.302634913579;

  // Basis function  20 L = d
  InitBFNGauss(BAS[ATNO][ 19]);
  BAS[ATNO][ 19].l  = 2;
  BAS[ATNO][ 19].ng = 11;
  BAS[ATNO][ 19].a[  0] =       446.161300000000;     BAS[ATNO][ 19].d[  0] =         0.001350385815;
  BAS[ATNO][ 19].a[  1] =       133.964800000000;     BAS[ATNO][ 19].d[  1] =         0.011703375782;
  BAS[ATNO][ 19].a[  2] =        51.345910000000;     BAS[ATNO][ 19].d[  2] =         0.054223028941;
  BAS[ATNO][ 19].a[  3] =        21.916910000000;     BAS[ATNO][ 19].d[  3] =         0.161195335515;
  BAS[ATNO][ 19].a[  4] =         9.893725000000;     BAS[ATNO][ 19].d[  4] =         0.305516425269;
  BAS[ATNO][ 19].a[  5] =         4.492527000000;     BAS[ATNO][ 19].d[  5] =         0.372370234662;
  BAS[ATNO][ 19].a[  6] =         2.002293000000;     BAS[ATNO][ 19].d[  6] =         0.262308502267;
  BAS[ATNO][ 19].a[  7] =         0.808409000000;     BAS[ATNO][ 19].d[  7] =        -1.288727726182;
  BAS[ATNO][ 19].a[  8] =         0.300600000000;     BAS[ATNO][ 19].d[  8] =         1.415918696946;
  BAS[ATNO][ 19].a[  9] =         2.793800000000;     BAS[ATNO][ 19].d[  9] =         0.405146164496;
  BAS[ATNO][ 19].a[ 10] =         7.471600000000;     BAS[ATNO][ 19].d[ 10] =        -1.036853253497;

  // Basis function  21 L = f
  InitBFNGauss(BAS[ATNO][ 20]);
  BAS[ATNO][ 20].l  = 3;
  BAS[ATNO][ 20].ng = 3;
  BAS[ATNO][ 20].a[  0] =         0.662200000000;     BAS[ATNO][ 20].d[  0] =        -0.000971439177;
  BAS[ATNO][ 20].a[  1] =         3.951800000000;     BAS[ATNO][ 20].d[  1] =         0.553091132073;
  BAS[ATNO][ 20].a[  2] =        11.866400000000;     BAS[ATNO][ 20].d[  2] =         0.592813774364;

  // Basis function  22 L = f
  InitBFNGauss(BAS[ATNO][ 21]);
  BAS[ATNO][ 21].l  = 3;
  BAS[ATNO][ 21].ng = 3;
  BAS[ATNO][ 21].a[  0] =         0.662200000000;     BAS[ATNO][ 21].d[  0] =        -0.413899805207;
  BAS[ATNO][ 21].a[  1] =         3.951800000000;     BAS[ATNO][ 21].d[  1] =        -0.839655235672;
  BAS[ATNO][ 21].a[  2] =        11.866400000000;     BAS[ATNO][ 21].d[  2] =         0.881001572439;

  // Basis function  23 L = f
  InitBFNGauss(BAS[ATNO][ 22]);
  BAS[ATNO][ 22].l  = 3;
  BAS[ATNO][ 22].ng = 3;
  BAS[ATNO][ 22].a[  0] =         0.662200000000;     BAS[ATNO][ 22].d[  0] =         0.938537726937;
  BAS[ATNO][ 22].a[  1] =         3.951800000000;     BAS[ATNO][ 22].d[  1] =        -0.660443118179;
  BAS[ATNO][ 22].a[  2] =        11.866400000000;     BAS[ATNO][ 22].d[  2] =         0.511093406240;

  // Basis function  24 L = g
  InitBFNGauss(BAS[ATNO][ 23]);
  BAS[ATNO][ 23].l  = 4;
  BAS[ATNO][ 23].ng = 1;
  BAS[ATNO][ 23].a[  0] =         8.899500000000;     BAS[ATNO][ 23].d[  0] =         1.000000000000;

-------
TIMINGS
-------

Total SCF time: 0 days 0 hours 0 min 5 sec 

Total time                  ....       5.044 sec
Sum of individual times     ....       4.745 sec  ( 94.1%)

Fock matrix formation       ....       3.965 sec  ( 78.6%)
  XC integration            ....       0.032 sec  (  0.8% of F)
    Basis function eval.    ....       0.010 sec  ( 31.6% of XC)
    Density eval.           ....       0.002 sec  (  7.0% of XC)
    XC-Functional eval.     ....       0.002 sec  (  5.0% of XC)
    XC-Potential eval.      ....       0.004 sec  ( 12.7% of XC)
Diagonalization             ....       0.001 sec  (  0.0%)
Density matrix formation    ....       0.001 sec  (  0.0%)
Population analysis         ....       0.001 sec  (  0.0%)
Initial guess               ....       0.074 sec  (  1.5%)
Orbital Transformation      ....       0.000 sec  (  0.0%)
Orbital Orthonormalization  ....       0.000 sec  (  0.0%)
DIIS solution               ....       0.000 sec  (  0.0%)
SOSCF solution              ....       0.001 sec  (  0.0%)
Grid generation             ....       0.701 sec  ( 13.9%)

-------------------------   --------------------
FINAL SINGLE POINT ENERGY     -1270.763003090772
-------------------------   --------------------


                            ***************************************
                            *     ORCA property calculations      *
                            ***************************************

                                    ---------------------
                                    Active property flags
                                    ---------------------
   (+) Dipole Moment


------------------------------------------------------------------------------
                       ORCA ELECTRIC PROPERTIES CALCULATION
------------------------------------------------------------------------------

Dipole Moment Calculation                       ... on
Quadrupole Moment Calculation                   ... off
Polarizability Calculation                      ... off
GBWName                                         ... Kr_cc-pcvtz_4385.151648_.gbw
Electron density file                           ... Kr_cc-pcvtz_4385.151648_.scfp
The origin for moment calculation is the CENTER OF MASS  = ( 0.000000,  0.000000  0.000000)

-------------
DIPOLE MOMENT
-------------
                                X             Y             Z
Electronic contribution:     -0.00000      -0.00000      -0.00000
Nuclear contribution   :      0.00000       0.00000       0.00000
                        -----------------------------------------
Total Dipole Moment    :     -0.00000      -0.00000      -0.00000
                        -----------------------------------------
Magnitude (a.u.)       :      0.00000
Magnitude (Debye)      :      0.00000



--------------------
Rotational spectrum 
--------------------
 
Rotational constants in cm-1:     0.000000     0.000000     0.000000 
Rotational constants in MHz :     0.000000     0.000000     0.000000 

 Dipole components along the rotational axes: 
x,y,z [a.u.] :    -0.000000    -0.000000    -0.000000 
x,y,z [Debye]:    -0.000000    -0.000000    -0.000000 

 

Timings for individual modules:

Sum of individual times         ...        7.086 sec (=   0.118 min)
GTO integral calculation        ...        1.249 sec (=   0.021 min)  17.6 %
Relativistic integrals          ...        0.522 sec (=   0.009 min)   7.4 %
SCF iterations                  ...        5.314 sec (=   0.089 min)  75.0 %
                             ****ORCA TERMINATED NORMALLY****
TOTAL RUN TIME: 0 days 0 hours 0 minutes 7 seconds 443 msec
