
                                 *****************
                                 * O   R   C   A *
                                 *****************

           --- An Ab Initio, DFT and Semiempirical electronic structure package ---

                  #######################################################
                  #                        -***-                        #
                  #          Department of theory and spectroscopy      #
                  #               Directorship: Frank Neese             #
                  #        Max Planck Institute fuer Kohlenforschung    #
                  #                Kaiser Wilhelm Platz 1               #
                  #                 D-45470 Muelheim/Ruhr               #
                  #                      Germany                        #
                  #                                                     #
                  #                  All rights reserved                #
                  #                        -***-                        #
                  #######################################################


                         Program Version 4.2.1 -  RELEASE  -


 With contributions from (in alphabetic order):
   Daniel Aravena         : Magnetic Suceptibility
   Michael Atanasov       : Ab Initio Ligand Field Theory (pilot matlab implementation)
   Alexander A. Auer      : GIAO ZORA, VPT2
   Ute Becker             : Parallelization
   Giovanni Bistoni       : ED, misc. LED, open-shell LED, HFLD
   Martin Brehm           : Molecular dynamics
   Dmytro Bykov           : SCF Hessian
   Vijay G. Chilkuri      : MRCI spin determinant printing, contributions to CSF-ICE
   Dipayan Datta          : RHF DLPNO-CCSD density
   Achintya Kumar Dutta   : EOM-CC, STEOM-CC
   Dmitry Ganyushin       : Spin-Orbit,Spin-Spin,Magnetic field MRCI
   Miquel Garcia          : C-PCM Hessian, Gaussian charge scheme
   Yang Guo               : DLPNO-NEVPT2, CIM, IAO-localization
   Andreas Hansen         : Spin unrestricted coupled pair/coupled cluster methods
   Benjamin Helmich-Paris : CASSCF linear response (MC-RPA)
   Lee Huntington         : MR-EOM, pCC
   Robert Izsak           : Overlap fitted RIJCOSX, COSX-SCS-MP3, EOM
   Christian Kollmar      : KDIIS, OOCD, Brueckner-CCSD(T), CCSD density
   Simone Kossmann        : Meta GGA functionals, TD-DFT gradient, OOMP2, MP2 Hessian
   Martin Krupicka        : AUTO-CI
   Lucas Lang             : DCDCAS
   Dagmar Lenk            : GEPOL surface, SMD
   Dimitrios Liakos       : Extrapolation schemes; Compound Job, initial MDCI parallelization
   Dimitrios Manganas     : Further ROCIS development; embedding schemes
   Dimitrios Pantazis     : SARC Basis sets
   Taras Petrenko         : DFT Hessian,TD-DFT gradient, ASA, ECA, R-Raman, ABS, FL, XAS/XES, NRVS
   Peter Pinski           : DLPNO-MP2, DLPNO-MP2 Gradient
   Christoph Reimann      : Effective Core Potentials
   Marius Retegan         : Local ZFS, SOC
   Christoph Riplinger    : Optimizer, TS searches, QM/MM, DLPNO-CCSD(T), (RO)-DLPNO pert. Triples
   Tobias Risthaus        : Range-separated hybrids, TD-DFT gradient, RPA, STAB
   Michael Roemelt        : Original ROCIS implementation
   Masaaki Saitow         : Open-shell DLPNO-CCSD energy and density
   Barbara Sandhoefer     : DKH picture change effects
   Avijit Sen             : IP-ROCIS
   Kantharuban Sivalingam : CASSCF convergence, NEVPT2, FIC-MRCI
   Bernardo de Souza      : ESD, SOC TD-DFT
   Georgi Stoychev        : AutoAux, RI-MP2 NMR
   Willem Van den Heuvel  : Paramagnetic NMR
   Boris Wezisla          : Elementary symmetry handling
   Frank Wennmohs         : Technical directorship


 We gratefully acknowledge several colleagues who have allowed us to
 interface, adapt or use parts of their codes:
   Stefan Grimme, W. Hujo, H. Kruse,             : VdW corrections, initial TS optimization,
                  C. Bannwarth                     DFT functionals, gCP, sTDA/sTD-DF
   Ed Valeev, F. Pavosevic, A. Kumar             : LibInt (2-el integral package), F12 methods
   Garnet Chan, S. Sharma, J. Yang, R. Olivares  : DMRG
   Ulf Ekstrom                                   : XCFun DFT Library
   Mihaly Kallay                                 : mrcc  (arbitrary order and MRCC methods)
   Andreas Klamt, Michael Diedenhofen            : otool_cosmo (COSMO solvation model)
   Jiri Pittner, Ondrej Demel                    : Mk-CCSD
   Frank Weinhold                                : gennbo (NPA and NBO analysis)
   Christopher J. Cramer and Donald G. Truhlar   : smd solvation model
   Lars Goerigk                                  : TD-DFT with DH, B97 family of functionals
   V. Asgeirsson, H. Jonsson                     : NEB implementation
   FAccTs GmbH                                   : IRC, NEB, NEB-TS, Multilevel, MM, QM/MM, CI optimization
   S Lehtola, MJT Oliveira, MAL Marques          : LibXC Library


 Your calculation uses the libint2 library for the computation of 2-el integrals
 For citations please refer to: http://libint.valeyev.net

 Your ORCA version has been built with support for libXC version: 4.2.3
 For citations please refer to: https://tddft.org/programs/libxc/

 This ORCA versions uses:
   CBLAS   interface :  Fast vector & matrix operations
   LAPACKE interface :  Fast linear algebra routines
   SCALAPACK package :  Parallel linear algebra routines


----- Orbital basis set information -----
Your calculation utilizes the basis: cc-pCVDZ 
             H : cc-pVDZ. Obtained from the ccRepo (grant-hill.group.shef.ac.uk/ccrepo) Feb. 2017
                 T. H. Dunning, Jr., J. Chem. Phys. 90, 1007 (1989)
            He : cc-pVDZ. Obtained from the ccRepo (grant-hill.group.shef.ac.uk/ccrepo) Feb. 2017
                 D. E. Woon, T. H. Dunning, Jr., J. Chem. Phys. 100, 2975 (1994)
  Li-Be, Na-Mg : Obtained from the ccRepo (grant-hill.group.shef.ac.uk/ccrepo) Feb. 2017
                 B. P. Prascher, D. E. Woon, K. A. Peterson, T. H. Dunning, Jr., A. K. Wilson, Theor. Chem. Acc. 128, 69 (2011)
          B-Ne : Obtained from the ccRepo (grant-hill.group.shef.ac.uk/ccrepo) Feb. 2017
                 D. E. Woon, T. H. Dunning, Jr., J. Chem. Phys. 103, 4572 (1995)
                  K. A. Peterson, T. H. Dunning, Jr., J. Chem. Phys. 117, 10548 (2002)
         Al-Ar : Obtained from the EMSL Basis Set Exchange (bse.pnl.gov) Feb. 2017
                 K. A. Peterson, T. H. Dunning, Jr., J. Chem. Phys. 117, 10548 (2002)
            Ca : Obtained from the Peterson Research Group Website (tyr0.chem.wsu.edu/~kipeters) Feb. 2017
                 J. Koput, K. A. Peterson, J. Phys. Chem. 106, 9595 (2002)
         Ga-Kr : Obtained from the Peterson Research Group Website (tyr0.chem.wsu.edu/~kipeters) Feb. 2017
                 N. J. DeYonker, K. A. Peterson, A. K. Wilson, J. Phys. Chem. A 111, 11383 (2007)

================================================================================
                                        WARNINGS
                       Please study these warnings very carefully!
================================================================================


INFO   : the flag for use of LIBINT has been found!

================================================================================
                                       INPUT FILE
================================================================================
NAME = Kr_cc-pcvdz_2192.575824_.inp
|  1> ! LDA cc-pcvdz nori grid5 finalgrid6 verytightscf
|  2> %Pal NProcs 18 End
|  3> 
|  4> % REL
|  5>   Method ZORA
|  6>   ModelPot 1, 0, 0, 0
|  7>   velit 2192.575824
|  8> END
|  9> 
| 10> *xyz 34 1
| 11> Kr 0.0 0.0 0.0
| 12> **                         ****END OF INPUT****
================================================================================

                       ****************************
                       * Single Point Calculation *
                       ****************************

---------------------------------
CARTESIAN COORDINATES (ANGSTROEM)
---------------------------------
  Kr     0.000000    0.000000    0.000000

----------------------------
CARTESIAN COORDINATES (A.U.)
----------------------------
  NO LB      ZA    FRAG     MASS         X           Y           Z
   0 Kr   36.0000    0    83.800    0.000000    0.000000    0.000000

--------------------------------
INTERNAL COORDINATES (ANGSTROEM)
--------------------------------
 Kr     0   0   0     0.000000000000     0.00000000     0.00000000

---------------------------
INTERNAL COORDINATES (A.U.)
---------------------------
 Kr     0   0   0     0.000000000000     0.00000000     0.00000000

---------------------
BASIS SET INFORMATION
---------------------
There are 1 groups of distinct atoms

 Group   1 Type Kr  : 54s32p7d1f contracted to 6s5p3d1f pattern {1313131311/10101011/511/1}

Atom   0Kr   basis set group =>   1


           ************************************************************
           *        Program running with 18 parallel MPI-processes    *
           *              working on a common directory               *
           ************************************************************
------------------------------------------------------------------------------
                           ORCA GTO INTEGRAL CALCULATION
------------------------------------------------------------------------------

                         BASIS SET STATISTICS AND STARTUP INFO

 # of primitive gaussian shells          ...   94
 # of primitive gaussian functions       ...  192
 # of contracted shells                  ...   15
 # of contracted basis functions         ...   43
 Highest angular momentum                ...    3
 Maximum contraction depth               ...   13
 Integral package used                   ... LIBINT
 Integral threshhold            Thresh   ...  1.000e-12
 Primitive cut-off              TCut     ...  1.000e-14


------------------------------ INTEGRAL EVALUATION ----------------------------


 * One electron integrals 
 Pre-screening matrix                    ... done
 Shell pair data                         ... done (   0.000 sec)



           ************************************************************
           *        Program running with 18 parallel MPI-processes    *
           *              working on a common directory               *
           ************************************************************
------------------------------------------------------------------------------
                          ORCA RELATIVISTIC HAMILTONIAN
------------------------------------------------------------------------------

Relativistic Method            ... ZORA(MP)
Treatment of potential         ... Van Wuellen
Nucleus model                  ... Point Nucleus
Speed of light used            ... 2192.57582400000001


            *************************************************
            *         ZERO ORDER REGULAR APPROXIMATION      *
            *                     ZORA(MP)                  *
            *            Programmed by FN according to      *
            *                   C. van Wuellen              *
            *       J. Chem. Phys. (1998) vol 109, 392-399  *
            *************************************************

Terms included in model potential: +V(e,N)
Basis function cutoff value   ... 1.000000e-12
Loading the fitted atomic densities  (DKH4)  ... done
Calculating the cutoffs                      ... done
Number of fit functions                      ... 27
Setting up the integration grid ... done


           ************************************************************
           *        Program running with 18 parallel MPI-processes    *
           *              working on a common directory               *
           ************************************************************
-------------------------------------------------------------------------------
                                 ORCA SCF
-------------------------------------------------------------------------------

------------
SCF SETTINGS
------------
Hamiltonian:
 Density Functional     Method          .... DFT(GTOs)
 Exchange Functional    Exchange        .... Slater
   X-Alpha parameter    XAlpha          ....  0.666667
 Correlation Functional Correlation     .... VWN-5
 Gradients option       PostSCFGGA      .... off
   Density functional embedding theory  .... OFF

Relativistic Settings:
 Scalar relativistic method             .... ZORA
 Speed of light used       Velit        ....       2192.57582
Orbital energies will be scaled


General Settings:
 Integral files         IntName         .... Kr_cc-pcvdz_2192.575824_
 Hartree-Fock type      HFTyp           .... RHF
 Total Charge           Charge          ....   34
 Multiplicity           Mult            ....    1
 Number of Electrons    NEL             ....    2
 Basis Dimension        Dim             ....   43
 Nuclear Repulsion      ENuc            ....      0.0000000000 Eh

Convergence Acceleration:
 DIIS                   CNVDIIS         .... on
   Start iteration      DIISMaxIt       ....    12
   Startup error        DIISStart       ....  0.200000
   # of expansion vecs  DIISMaxEq       ....     5
   Bias factor          DIISBfac        ....   1.050
   Max. coefficient     DIISMaxC        ....  10.000
 Newton-Raphson         CNVNR           .... off
 SOSCF                  CNVSOSCF        .... on
   Start iteration      SOSCFMaxIt      ....   150
   Startup grad/error   SOSCFStart      ....  0.003300
 Level Shifting         CNVShift        .... on
   Level shift para.    LevelShift      ....    0.2500
   Turn off err/grad.   ShiftErr        ....    0.0010
 Zerner damping         CNVZerner       .... off
 Static damping         CNVDamp         .... on
   Fraction old density DampFac         ....    0.7000
   Max. Damping (<1)    DampMax         ....    0.9800
   Min. Damping (>=0)   DampMin         ....    0.0000
   Turn off err/grad.   DampErr         ....    0.1000
 Fernandez-Rico         CNVRico         .... off

SCF Procedure:
 Maximum # iterations   MaxIter         ....   125
 SCF integral mode      SCFMode         .... Direct
   Integral package                     .... LIBINT
 Reset frequency        DirectResetFreq ....    20
 Integral Threshold     Thresh          ....  1.000e-12 Eh
 Primitive CutOff       TCut            ....  1.000e-14 Eh

Convergence Tolerance:
 Convergence Check Mode ConvCheckMode   .... Total+1el-Energy
 Convergence forced     ConvForced      .... 0
 Energy Change          TolE            ....  1.000e-09 Eh
 1-El. energy change                    ....  1.000e-06 Eh
 Orbital Gradient       TolG            ....  2.000e-06
 Orbital Rotation angle TolX            ....  2.000e-06
 DIIS Error             TolErr          ....  1.000e-08


Diagonalization of the overlap matrix:
Smallest eigenvalue                        ... 6.494e-03
Time for diagonalization                   ...    0.001 sec
Threshold for overlap eigenvalues          ... 1.000e-08
Number of eigenvalues below threshold      ... 0
Time for construction of square roots      ...    0.001 sec
Total time needed                          ...    0.002 sec

-------------------
DFT GRID GENERATION
-------------------

General Integration Accuracy     IntAcc      ...  5.010
Radial Grid Type                 RadialGrid  ... Gauss-Chebyshev
Angular Grid (max. acc.)         AngularGrid ... Lebedev-434
Angular grid pruning method      GridPruning ... 3 (G Style)
Weight generation scheme         WeightScheme... Becke
Basis function cutoff            BFCut       ...    1.0000e-12
Integration weight cutoff        WCut        ...    1.0000e-14
Grids for H and He will be reduced by one unit

# of grid points (after initial pruning)     ...  16106 (   0.0 sec)
# of grid points (after weights+screening)   ...  16106 (   0.0 sec)
Grid point division into batches done        ...    0.2 sec
Reduced shell lists constructed in    0.2 sec

Total number of grid points                  ...    16106
Total number of batches                      ...      252
Average number of points per batch           ...       63
Average number of grid points per atom       ...    16106
Average number of shells per batch           ...     0.00 ( 0.00%)
Average number of basis functions per batch  ...     0.00 ( 0.00%)
Average number of large shells per batch     ...     0.00 ( -nan%)
Average number of large basis fcns per batch ...     0.00 ( -nan%)
Maximum spatial batch extension              ...  17.34, 17.34, 17.34 au
Average spatial batch extension              ...   0.86,  0.87,  0.87 au

Time for grid setup =    0.243 sec

------------------------------
INITIAL GUESS: MODEL POTENTIAL
------------------------------
Loading ZORA relativistic densities                ... done
Calculating cut-offs                               ... done
Setting up the integral package                    ... done
Initializing the effective Hamiltonian             ... done
Starting the Coulomb interaction                   ... done (   0.0 sec)
Reading the grid                                   ... done
Mapping shells                                     ... done
Starting the XC term evaluation                    ... done (   0.0 sec)
  promolecular density results
     # of electrons  =     36.000000565
     EX              =    -91.042004939
     EC              =     -3.295965580
     EX+EC           =    -94.337970520
Transforming the Hamiltonian                       ... done (   0.0 sec)
Diagonalizing the Hamiltonian                      ... done (   0.0 sec)
Back transforming the eigenvectors                 ... done (   0.0 sec)
Now organizing SCF variables                       ... done
                      ------------------
                      INITIAL GUESS DONE (   0.3 sec)
                      ------------------
--------------
SCF ITERATIONS
--------------
ITER       Energy         Delta-E        Max-DP      RMS-DP      [F,P]     Damp
               ***  Starting incremental Fock matrix formation  ***
  0  -1270.8271230218   0.000000000000 0.01010024  0.00032826  6.2099872 0.7000
                      *** Initiating the SOSCF procedure ***
                      *** Re-Reading the Fockian *** 
                      *** Removing any level shift *** 
ITER      Energy       Delta-E        Grad      Rot      Max-DP    RMS-DP
  1  -1270.84241686  -0.0152938348  0.002353  0.002353  0.023528  0.000765
               *** Restarting incremental Fock matrix formation ***
  2  -1270.87794691  -0.0355300497  0.009422  0.000020  0.000127  0.000004
  3  -1270.87794737  -0.0000004637  0.000040  0.000000  0.000001  0.000000
                 **** Energy Check signals convergence ****
              ***Rediagonalizing the Fockian in SOSCF/NRSCF***

               *****************************************************
               *                     SUCCESS                       *
               *           SCF CONVERGED AFTER   4 CYCLES          *
               *****************************************************

Setting up the final grid:

General Integration Accuracy     IntAcc      ...  5.340
Radial Grid Type                 RadialGrid  ... Gauss-Chebyshev
Angular Grid (max. acc.)         AngularGrid ... Lebedev-590
Angular grid pruning method      GridPruning ... 3 (G Style)
Weight generation scheme         WeightScheme... Becke
Basis function cutoff            BFCut       ...    1.0000e-12
Integration weight cutoff        WCut        ...    1.0000e-14
Grids for H and He will be reduced by one unit

# of grid points (after initial pruning)     ...  24180 (   0.0 sec)
# of grid points (after weights+screening)   ...  24180 (   0.0 sec)
Grid point division into batches done        ...    0.4 sec
Reduced shell lists constructed in    0.4 sec

Total number of grid points                  ...    24180
Total number of batches                      ...      378
Average number of points per batch           ...       63
Average number of grid points per atom       ...    24180
Average number of shells per batch           ...     0.00 ( 0.00%)
Average number of basis functions per batch  ...     0.00 ( 0.00%)
Average number of large shells per batch     ...     0.00 ( -nan%)
Average number of large basis fcns per batch ...     0.00 ( -nan%)
Maximum spatial batch extension              ...  17.58, 17.58, 17.58 au
Average spatial batch extension              ...   0.77,  0.77,  0.77 au

Final grid set up in    0.4 sec
Final integration                            ... done (   0.0 sec)
Change in XC energy                          ...    -0.000002127
Integrated number of electrons               ...     2.000000053
Previous integrated no of electrons          ...     2.000000058

----------------
TOTAL SCF ENERGY
----------------

Total Energy       :        -1270.87794950 Eh          -34582.34714 eV

Components:
Nuclear Repulsion  :            0.00000000 Eh               0.00000 eV
Electronic Energy  :        -1270.87794950 Eh          -34582.34714 eV
One Electron Energy:        -1295.95626135 Eh          -35264.76270 eV
Two Electron Energy:           25.07831185 Eh             682.41556 eV

Virial components:
Potential Energy   :        -2537.08683521 Eh          -69037.64259 eV
Kinetic Energy     :         1266.20888572 Eh           34455.29545 eV
Virial Ratio       :            2.00368744


DFT components:
N(Alpha)           :        1.000000026261 electrons
N(Beta)            :        1.000000026261 electrons
N(Total)           :        2.000000052522 electrons
E(X)               :      -19.048167754534 Eh       
E(C)               :       -0.277859842254 Eh       
E(XC)              :      -19.326027596789 Eh       
DFET-embed. en.    :        0.000000000000 Eh       

---------------
SCF CONVERGENCE
---------------

  Last Energy change         ...   -7.9581e-12  Tolerance :   1.0000e-09
  Last MAX-Density change    ...    0.0000e+00  Tolerance :   1.0000e-08
  Last RMS-Density change    ...    0.0000e+00  Tolerance :   1.0000e-09
  Last Orbital Gradient      ...    2.6609e-11  Tolerance :   2.0000e-06
  Last Orbital Rotation      ...    0.0000e+00  Tolerance :   2.0000e-06

================================================================================
                                        WARNING
Number of found core electrons (2) does not match given number of chemical core electrons (18)
================================================================================
             **** THE GBW FILE WAS UPDATED (Kr_cc-pcvdz_2192.575824_.gbw) ****
             **** DENSITY FILE WAS UPDATED (Kr_cc-pcvdz_2192.575824_.scfp) ****
             **** ENERGY FILE WAS UPDATED (Kr_cc-pcvdz_2192.575824_.en.tmp) ****
             **** THE GBW FILE WAS UPDATED (Kr_cc-pcvdz_2192.575824_.gbw) ****
             **** DENSITY FILE WAS UPDATED (Kr_cc-pcvdz_2192.575824_.scfp) ****
----------------
ORBITAL ENERGIES
----------------

  NO   OCC          E(Eh)            E(eV) 
   0   2.0000    -616.421335    -16773.6773 
   1   0.0000    -148.595547     -4043.4904 
   2   0.0000    -146.762626     -3993.6141 
   3   0.0000    -146.762626     -3993.6141 
   4   0.0000    -146.762626     -3993.6141 
   5   0.0000     -63.750174     -1734.7304 
   6   0.0000     -63.472851     -1727.1841 
   7   0.0000     -63.472851     -1727.1841 
   8   0.0000     -63.472851     -1727.1841 
   9   0.0000     -61.722811     -1679.5631 
  10   0.0000     -61.722811     -1679.5631 
  11   0.0000     -61.722811     -1679.5631 
  12   0.0000     -61.722811     -1679.5631 
  13   0.0000     -61.722811     -1679.5631 
  14   0.0000     -34.887613      -949.3402 
  15   0.0000     -34.887613      -949.3402 
  16   0.0000     -34.887613      -949.3402 
  17   0.0000     -34.196254      -930.5274 
  18   0.0000     -34.196254      -930.5274 
  19   0.0000     -34.196254      -930.5274 
  20   0.0000     -34.196254      -930.5274 
  21   0.0000     -34.196254      -930.5274 
  22   0.0000     -34.196254      -930.5274 
  23   0.0000     -34.196254      -930.5274 
  24   0.0000     -34.000778      -925.2082 
  25   0.0000     -32.361426      -880.5992 
  26   0.0000     -32.361426      -880.5992 
  27   0.0000     -32.361426      -880.5992 
  28   0.0000     -32.361426      -880.5992 
  29   0.0000     -32.361426      -880.5992 
  30   0.0000     -20.210175      -549.9468 
  31   0.0000     -20.151888      -548.3608 
  32   0.0000     -20.151888      -548.3608 
  33   0.0000     -20.151888      -548.3608 
  34   0.0000     -16.949150      -461.2098 
  35   0.0000     -16.949150      -461.2098 
  36   0.0000     -16.949150      -461.2098 
  37   0.0000     -16.949150      -461.2098 
  38   0.0000     -16.949150      -461.2098 
  39   0.0000     -11.983254      -326.0809 
  40   0.0000     -10.916345      -297.0489 
  41   0.0000     -10.916345      -297.0489 
  42   0.0000     -10.916345      -297.0489 

                    ********************************
                    * MULLIKEN POPULATION ANALYSIS *
                    ********************************

-----------------------
MULLIKEN ATOMIC CHARGES
-----------------------
   0 Kr:   34.000000
Sum of atomic charges:   34.0000000

--------------------------------
MULLIKEN REDUCED ORBITAL CHARGES
--------------------------------
  0 Krs       :     2.000000  s :     2.000000
      pz      :     0.000000  p :     0.000000
      px      :     0.000000
      py      :     0.000000
      dz2     :     0.000000  d :     0.000000
      dxz     :     0.000000
      dyz     :     0.000000
      dx2y2   :     0.000000
      dxy     :     0.000000
      f0      :     0.000000  f :     0.000000
      f+1     :     0.000000
      f-1     :     0.000000
      f+2     :     0.000000
      f-2     :     0.000000
      f+3     :     0.000000
      f-3     :     0.000000


                     *******************************
                     * LOEWDIN POPULATION ANALYSIS *
                     *******************************

----------------------
LOEWDIN ATOMIC CHARGES
----------------------
   0 Kr:   34.000000

-------------------------------
LOEWDIN REDUCED ORBITAL CHARGES
-------------------------------
  0 Krs       :     2.000000  s :     2.000000
      pz      :     0.000000  p :     0.000000
      px      :     0.000000
      py      :     0.000000
      dz2     :     0.000000  d :     0.000000
      dxz     :     0.000000
      dyz     :     0.000000
      dx2y2   :     0.000000
      dxy     :     0.000000
      f0      :     0.000000  f :     0.000000
      f+1     :     0.000000
      f-1     :     0.000000
      f+2     :     0.000000
      f-2     :     0.000000
      f+3     :     0.000000
      f-3     :     0.000000


                      *****************************
                      * MAYER POPULATION ANALYSIS *
                      *****************************

  NA   - Mulliken gross atomic population
  ZA   - Total nuclear charge
  QA   - Mulliken gross atomic charge
  VA   - Mayer's total valence
  BVA  - Mayer's bonded valence
  FA   - Mayer's free valence

  ATOM       NA         ZA         QA         VA         BVA        FA
  0 Kr     2.0000    36.0000    34.0000     0.0000     0.0000     0.0000

  Mayer bond orders larger than 0.100000


--------------------------
ATOM BASIS FOR ELEMENT Kr
--------------------------
 NewGTO Kr
 S 54
    1     681358.800000000047         0.000197075216
    2     102126.500000000000         0.001529960263
    3      23243.709999999999         0.007957074507
    4       6582.007000000000         0.032522715423
    5       2146.429000000000         0.106818971028
    6        774.337800000000         0.267808203965
    7        301.670200000000         0.420559012251
    8        123.411800000000         0.286055827634
    9         38.567550000000         0.032274795001
   10         16.637380000000        -0.007689636732
   11          5.198795000000         0.002941915610
   12          2.294814000000        -0.001467504735
   13          0.485211000000         0.000414768764
   14     681358.800000000047         0.000000009553
   15     102126.500000000000         0.000000073627
   16      23243.709999999999         0.000000389193
   17       6582.007000000000         0.000001591667
   18       2146.429000000000         0.000005582966
   19        774.337800000000         0.000015262052
   20        301.670200000000         0.000032876005
   21        123.411800000000         0.000028922517
   22         38.567550000000        -0.000070399352
   23         16.637380000000        -0.000099301227
   24          5.198795000000        -0.000013155547
   25          2.294814000000         0.000002397775
   26          0.485211000000        -0.000000560422
   27     681358.800000000047         0.000000267789
   28     102126.500000000000         0.000002073480
   29      23243.709999999999         0.000010914807
   30       6582.007000000000         0.000045015377
   31       2146.429000000000         0.000157510263
   32        774.337800000000         0.000442087846
   33        301.670200000000         0.000972164155
   34        123.411800000000         0.000957826171
   35         38.567550000000        -0.003157236598
   36         16.637380000000        -0.006194303853
   37          5.198795000000         0.005343488816
   38          2.294814000000         0.008191638181
   39          0.485211000000         0.000487468878
   40     681358.800000000047        -0.000000008037
   41     102126.500000000000        -0.000000062466
   42      23243.709999999999        -0.000000328606
   43       6582.007000000000        -0.000001356134
   44       2146.429000000000        -0.000004748197
   45        774.337800000000        -0.000013363156
   46        301.670200000000        -0.000029538076
   47        123.411800000000        -0.000029520882
   48         38.567550000000         0.000102006479
   49         16.637380000000         0.000214032882
   50          5.198795000000        -0.000237295000
   51          2.294814000000        -0.000564275399
   52          0.485211000000         0.000709047495
   53          0.186270000000        -0.000659665897
   54          2.178900000000        -0.010442144045
 S 54
    1     681358.800000000047         0.000005454741
    2     102126.500000000000         0.000042346964
    3      23243.709999999999         0.000220239671
    4       6582.007000000000         0.000900179098
    5       2146.429000000000         0.002956585996
    6        774.337800000000         0.007412522119
    7        301.670200000000         0.011640431228
    8        123.411800000000         0.007917588476
    9         38.567550000000         0.000893317039
   10         16.637380000000        -0.000212837402
   11          5.198795000000         0.000081427732
   12          2.294814000000        -0.000040618290
   13          0.485211000000         0.000011480166
   14     681358.800000000047         0.000050183444
   15     102126.500000000000         0.000386783648
   16      23243.709999999999         0.002044531586
   17       6582.007000000000         0.008361433073
   18       2146.429000000000         0.029328753569
   19        774.337800000000         0.080175473942
   20        301.670200000000         0.172706079451
   21        123.411800000000         0.151937395029
   22         38.567550000000        -0.369825839497
   23         16.637380000000        -0.521654799561
   24          5.198795000000        -0.069109459841
   25          2.294814000000         0.012596125049
   26          0.485211000000        -0.002944041577
   27     681358.800000000047         0.000010283153
   28     102126.500000000000         0.000079622163
   29      23243.709999999999         0.000419131396
   30       6582.007000000000         0.001728602111
   31       2146.429000000000         0.006048434828
   32        774.337800000000         0.016976287594
   33        301.670200000000         0.037331354884
   34        123.411800000000         0.036780772584
   35         38.567550000000        -0.121238701592
   36         16.637380000000        -0.237862869349
   37          5.198795000000         0.205191351989
   38          2.294814000000         0.314561023900
   39          0.485211000000         0.018718930958
   40     681358.800000000047        -0.000000189341
   41     102126.500000000000        -0.000001471586
   42      23243.709999999999        -0.000007741404
   43       6582.007000000000        -0.000031948270
   44       2146.429000000000        -0.000111859689
   45        774.337800000000        -0.000314813889
   46        301.670200000000        -0.000695868309
   47        123.411800000000        -0.000695463263
   48         38.567550000000         0.002403104276
   49         16.637380000000         0.005042261448
   50          5.198795000000        -0.005590278532
   51          2.294814000000        -0.013293397049
   52          0.485211000000         0.016703988695
   53          0.186270000000        -0.012854066811
   54          2.178900000000        -0.384229030872
 S 54
    1     681358.800000000047        -0.000042522710
    2     102126.500000000000        -0.000330117898
    3      23243.709999999999        -0.001716889498
    4       6582.007000000000        -0.007017391693
    5       2146.429000000000        -0.023048215692
    6        774.337800000000        -0.057784691143
    7        301.670200000000        -0.090743570475
    8        123.411800000000        -0.061721961481
    9         38.567550000000        -0.006963898167
   10         16.637380000000         0.001659184734
   11          5.198795000000        -0.000634774000
   12          2.294814000000         0.000316641935
   13          0.485211000000        -0.000089494215
   14     681358.800000000047         0.000082427296
   15     102126.500000000000         0.000635299770
   16      23243.709999999999         0.003358183450
   17       6582.007000000000         0.013733818715
   18       2146.429000000000         0.048173056120
   19        774.337800000000         0.131689797063
   20        301.670200000000         0.283673141377
   21        123.411800000000         0.249560167642
   22         38.567550000000        -0.607446234584
   23         16.637380000000        -0.856828295656
   24          5.198795000000        -0.113513650673
   25          2.294814000000         0.020689383798
   26          0.485211000000        -0.004835646348
   27     681358.800000000047        -0.000077103098
   28     102126.500000000000        -0.000597007121
   29      23243.709999999999        -0.003142647961
   30       6582.007000000000        -0.012961061749
   31       2146.429000000000        -0.045351175255
   32        774.337800000000        -0.127288235016
   33        301.670200000000        -0.279910566287
   34        123.411800000000        -0.275782299205
   35         38.567550000000         0.909048003316
   36         16.637380000000         1.783496223617
   37          5.198795000000        -1.538525127489
   38          2.294814000000        -2.358579124841
   39          0.485211000000        -0.140354578103
   40     681358.800000000047        -0.000000201896
   41     102126.500000000000        -0.000001569169
   42      23243.709999999999        -0.000008254750
   43       6582.007000000000        -0.000034066816
   44       2146.429000000000        -0.000119277301
   45        774.337800000000        -0.000335689751
   46        301.670200000000        -0.000742012560
   47        123.411800000000        -0.000741580655
   48         38.567550000000         0.002562458346
   49         16.637380000000         0.005376622670
   50          5.198795000000        -0.005960979731
   51          2.294814000000        -0.014174905580
   52          0.485211000000         0.017811659556
   53          0.186270000000         0.047410413384
   54          2.178900000000         2.541056236665
 S 54
    1     681358.800000000047        -0.000098644001
    2     102126.500000000000        -0.000765806094
    3      23243.709999999999        -0.003982832951
    4       6582.007000000000        -0.016278915389
    5       2146.429000000000        -0.053467152687
    6        774.337800000000        -0.134048680625
    7        301.670200000000        -0.210506548652
    8        123.411800000000        -0.143182343602
    9         38.567550000000        -0.016154821336
   10         16.637380000000         0.003848969685
   11          5.198795000000        -0.001472546024
   12          2.294814000000         0.000734544613
   13          0.485211000000        -0.000207608299
   14     681358.800000000047         0.000178338467
   15     102126.500000000000         0.001374525098
   16      23243.709999999999         0.007265715585
   17       6582.007000000000         0.029714285164
   18       2146.429000000000         0.104226505131
   19        774.337800000000         0.284922079163
   20        301.670200000000         0.613750974229
   21        123.411800000000         0.539944653468
   22         38.567550000000        -1.314261605658
   23         16.637380000000        -1.853820910413
   24          5.198795000000        -0.245596440152
   25          2.294814000000         0.044763241950
   26          0.485211000000        -0.010462332256
   27     681358.800000000047        -0.000114609767
   28     102126.500000000000        -0.000887420205
   29      23243.709999999999        -0.004671383644
   30       6582.007000000000        -0.019265947895
   31       2146.429000000000        -0.067412176285
   32        774.337800000000        -0.189207377528
   33        301.670200000000        -0.416072578766
   34        123.411800000000        -0.409936123278
   35         38.567550000000         1.351252837574
   36         16.637380000000         2.651074887325
   37          5.198795000000        -2.286938023749
   38          2.294814000000        -3.505905874559
   39          0.485211000000        -0.208629820687
   40     681358.800000000047        -0.000001859181
   41     102126.500000000000        -0.000014449839
   42      23243.709999999999        -0.000076014626
   43       6582.007000000000        -0.000313707420
   44       2146.429000000000        -0.001098376046
   45        774.337800000000        -0.003091230081
   46        301.670200000000        -0.006832891195
   47        123.411800000000        -0.006828913960
   48         38.567550000000         0.023596634375
   49         16.637380000000         0.049511126496
   50          5.198795000000        -0.054892232469
   51          2.294814000000        -0.130530927378
   52          0.485211000000         0.164020312287
   53          0.186270000000         0.019304409693
   54          2.178900000000         5.888997743597
 S 54
    1     681358.800000000047        -0.000087501430
    2     102126.500000000000        -0.000679302621
    3      23243.709999999999        -0.003532942453
    4       6582.007000000000        -0.014440091254
    5       2146.429000000000        -0.047427641550
    6        774.337800000000        -0.118906888725
    7        301.670200000000        -0.186728273936
    8        123.411800000000        -0.127008836780
    9         38.567550000000        -0.014330014544
   10         16.637380000000         0.003414200035
   11          5.198795000000        -0.001306211038
   12          2.294814000000         0.000651572355
   13          0.485211000000        -0.000184157403
   14     681358.800000000047         0.000159368780
   15     102126.500000000000         0.001228318221
   16      23243.709999999999         0.006492868591
   17       6582.007000000000         0.026553605987
   18       2146.429000000000         0.093140034678
   19        774.337800000000         0.254615198894
   20        301.670200000000         0.548466889030
   21        123.411800000000         0.482511273743
   22         38.567550000000        -1.174464896178
   23         16.637380000000        -1.656631810369
   24          5.198795000000        -0.219472589280
   25          2.294814000000         0.040001820096
   26          0.485211000000        -0.009349464303
   27     681358.800000000047        -0.000120918869
   28     102126.500000000000        -0.000936271405
   29      23243.709999999999        -0.004928536562
   30       6582.007000000000        -0.020326510480
   31       2146.429000000000        -0.071123119154
   32        774.337800000000        -0.199622970187
   33        301.670200000000        -0.438976772850
   34        123.411800000000        -0.432502514358
   35         38.567550000000         1.425637353229
   36         16.637380000000         2.797012728102
   37          5.198795000000        -2.412830656497
   38          2.294814000000        -3.698900925641
   39          0.485211000000        -0.220114590770
   40     681358.800000000047         0.000021637945
   41     102126.500000000000         0.000168173397
   42      23243.709999999999         0.000884690674
   43       6582.007000000000         0.003651060892
   44       2146.429000000000         0.012783369388
   45        774.337800000000         0.035977055533
   46        301.670200000000         0.079524105135
   47        123.411800000000         0.079477816366
   48         38.567550000000        -0.274627705779
   49         16.637380000000        -0.576231629654
   50          5.198795000000         0.638859238514
   51          2.294814000000         1.519174664910
   52          0.485211000000        -1.908938425268
   53          0.186270000000         0.432688598618
   54          2.178900000000         4.898431773444
 S 54
    1     681358.800000000047        -0.000043870173
    2     102126.500000000000        -0.000340578701
    3      23243.709999999999        -0.001771294436
    4       6582.007000000000        -0.007239759388
    5       2146.429000000000        -0.023778569478
    6        774.337800000000        -0.059615777267
    7        301.670200000000        -0.093619060323
    8        123.411800000000        -0.063677812157
    9         38.567550000000        -0.007184570755
   10         16.637380000000         0.001711761118
   11          5.198795000000        -0.000654888772
   12          2.294814000000         0.000326675711
   13          0.485211000000        -0.000092330115
   14     681358.800000000047         0.000082556635
   15     102126.500000000000         0.000636296636
   16      23243.709999999999         0.003363452866
   17       6582.007000000000         0.013755368819
   18       2146.429000000000         0.048248645755
   19        774.337800000000         0.131896435059
   20        301.670200000000         0.284118260518
   21        123.411800000000         0.249951759200
   22         38.567550000000        -0.608399394777
   23         16.637380000000        -0.858172767937
   24          5.198795000000        -0.113691767990
   25          2.294814000000         0.020721848065
   26          0.485211000000        -0.004843234090
   27     681358.800000000047        -0.000077391710
   28     102126.500000000000        -0.000599241833
   29      23243.709999999999        -0.003154411494
   30       6582.007000000000        -0.013009577484
   31       2146.429000000000        -0.045520933387
   32        774.337800000000        -0.127764699249
   33        301.670200000000        -0.280958325126
   34        123.411800000000        -0.276814605151
   35         38.567550000000         0.912450744034
   36         16.637380000000         1.790172191440
   37          5.198795000000        -1.544284121598
   38          2.294814000000        -2.367407738065
   39          0.485211000000        -0.140879952160
   40     681358.800000000047         0.000025716264
   41     102126.500000000000         0.000199870710
   42      23243.709999999999         0.001051437121
   43       6582.007000000000         0.004339212640
   44       2146.429000000000         0.015192778121
   45        774.337800000000         0.042758008907
   46        301.670200000000         0.094512803931
   47        123.411800000000         0.094457790657
   48         38.567550000000        -0.326389520086
   49         16.637380000000        -0.684839734315
   50          5.198795000000         0.759271391317
   51          2.294814000000         1.805508619025
   52          0.485211000000        -2.268735030684
   53          0.186270000000         2.226557887351
   54          2.178900000000         1.968704060656
 P 32
    1       4474.270000000000         0.001430125475
    2       1060.579000000000         0.011992912706
    3        342.208100000000         0.059902916136
    4        128.998400000000         0.196296133323
    5         53.087220000000         0.387994876775
    6         22.959420000000         0.364999927375
    7          9.507300000000         0.094477693629
    8          4.083055000000        -0.002360295273
    9          1.750446000000         0.002554272805
   10          0.529190000000        -0.000656662418
   11       4474.270000000000         0.000183340058
   12       1060.579000000000         0.001541970220
   13        342.208100000000         0.007928482937
   14        128.998400000000         0.027046881799
   15         53.087220000000         0.058125531975
   16         22.959420000000         0.048278859585
   17          9.507300000000        -0.080867023356
   18          4.083055000000        -0.176653580219
   19          1.750446000000        -0.081228771483
   20          0.529190000000        -0.003771524724
   21       4474.270000000000        -0.000000617125
   22       1060.579000000000        -0.000005102437
   23        342.208100000000        -0.000026833872
   24        128.998400000000        -0.000090066872
   25         53.087220000000        -0.000202136554
   26         22.959420000000        -0.000149522023
   27          9.507300000000         0.000317834612
   28          4.083055000000         0.000885447757
   29          1.750446000000         0.000107028921
   30          0.529190000000        -0.002181268401
   31          0.164369000000         0.003924938513
   32          2.632000000000         0.229208666861
 P 32
    1       4474.270000000000        -0.000677004009
    2       1060.579000000000        -0.005677299038
    3        342.208100000000        -0.028357312063
    4        128.998400000000        -0.092924202501
    5         53.087220000000        -0.183672056542
    6         22.959420000000        -0.172786527121
    7          9.507300000000        -0.044724591290
    8          4.083055000000         0.001117335080
    9          1.750446000000        -0.001209161685
   10          0.529190000000         0.000310856003
   11       4474.270000000000         0.001387336764
   12       1060.579000000000         0.011668110035
   13        342.208100000000         0.059994940327
   14        128.998400000000         0.204664129638
   15         53.087220000000         0.439836706487
   16         22.959420000000         0.365326799967
   17          9.507300000000        -0.611921887124
   18          4.083055000000        -1.336740091186
   19          1.750446000000        -0.614659240219
   20          0.529190000000        -0.028539179885
   21       4474.270000000000         0.000017758549
   22       1060.579000000000         0.000146829059
   23        342.208100000000         0.000772178446
   24        128.998400000000         0.002591787624
   25         53.087220000000         0.005816733803
   26         22.959420000000         0.004302684416
   27          9.507300000000        -0.009146091061
   28          4.083055000000        -0.025479873796
   29          1.750446000000        -0.003079891931
   30          0.529190000000         0.062768743993
   31          0.164369000000        -0.003874936716
   32          2.632000000000         1.475988389070
 P 32
    1       4474.270000000000        -0.001038348538
    2       1060.579000000000        -0.008707504054
    3        342.208100000000        -0.043492760922
    4        128.998400000000        -0.142521622439
    5         53.087220000000        -0.281705290877
    6         22.959420000000        -0.265009712411
    7          9.507300000000        -0.068595921643
    8          4.083055000000         0.001713702181
    9          1.750446000000        -0.001854540373
   10          0.529190000000         0.000476772474
   11       4474.270000000000         0.001348595560
   12       1060.579000000000         0.011342279539
   13        342.208100000000         0.058319589209
   14        128.998400000000         0.198948909714
   15         53.087220000000         0.427554322110
   16         22.959420000000         0.355125095302
   17          9.507300000000        -0.594834045852
   18          4.083055000000        -1.299411793276
   19          1.750446000000        -0.597494958709
   20          0.529190000000        -0.027742226897
   21       4474.270000000000         0.000014745279
   22       1060.579000000000         0.000121915111
   23        342.208100000000         0.000641155243
   24        128.998400000000         0.002152013217
   25         53.087220000000         0.004829750674
   26         22.959420000000         0.003572605119
   27          9.507300000000        -0.007594182744
   28          4.083055000000        -0.021156449964
   29          1.750446000000        -0.002557296008
   30          0.529190000000         0.052118146353
   31          0.164369000000         0.001329783676
   32          2.632000000000         2.864972126926
 P 32
    1       4474.270000000000        -0.000612760348
    2       1060.579000000000        -0.005138557062
    3        342.208100000000        -0.025666371488
    4        128.998400000000        -0.084106247317
    5         53.087220000000        -0.166242668724
    6         22.959420000000        -0.156390111424
    7          9.507300000000        -0.040480493079
    8          4.083055000000         0.001011306614
    9          1.750446000000        -0.001094419419
   10          0.529190000000         0.000281357614
   11       4474.270000000000         0.001081679449
   12       1060.579000000000         0.009097398094
   13        342.208100000000         0.046776886243
   14        128.998400000000         0.159572634926
   15         53.087220000000         0.342932111823
   16         22.959420000000         0.284838189197
   17          9.507300000000        -0.477103574866
   18          4.083055000000        -1.042230208776
   19          1.750446000000        -0.479237835750
   20          0.529190000000        -0.022251442600
   21       4474.270000000000        -0.000367285620
   22       1060.579000000000        -0.003036746012
   23        342.208100000000        -0.015970338827
   24        128.998400000000        -0.053603835637
   25         53.087220000000        -0.120302774757
   26         22.959420000000        -0.088988922591
   27          9.507300000000         0.189161163312
   28          4.083055000000         0.526979508094
   29          1.750446000000         0.063698900077
   30          0.529190000000        -1.298194885007
   31          0.164369000000         0.261182613774
   32          2.632000000000         1.655472033992
 P 32
    1       4474.270000000000        -0.000225317532
    2       1060.579000000000        -0.001889493991
    3        342.208100000000        -0.009437757354
    4        128.998400000000        -0.030926629207
    5         53.087220000000        -0.061128935579
    6         22.959420000000        -0.057506060988
    7          9.507300000000        -0.014885044090
    8          4.083055000000         0.000371866605
    9          1.750446000000        -0.000402427937
   10          0.529190000000         0.000103457744
   11       4474.270000000000         0.000484408412
   12       1060.579000000000         0.004074086987
   13        342.208100000000         0.020948088846
   14        128.998400000000         0.071461399043
   15         53.087220000000         0.153575257431
   16         22.959420000000         0.127559061178
   17          9.507300000000        -0.213661251907
   18          4.083055000000        -0.466741862592
   19          1.750446000000        -0.214617037770
   20          0.529190000000        -0.009964861579
   21       4474.270000000000        -0.000232868833
   22       1060.579000000000        -0.001925377581
   23        342.208100000000        -0.010125618746
   24        128.998400000000        -0.033986254696
   25         53.087220000000        -0.076275152607
   26         22.959420000000        -0.056421339114
   27          9.507300000000         0.119933198781
   28          4.083055000000         0.334118996688
   29          1.750446000000         0.040386793522
   30          0.529190000000        -0.823090017393
   31          0.164369000000         1.363389715773
   32          2.632000000000         0.543329439420
 D 7
    1        115.525300000000         0.035609446667
    2         33.465250000000         0.214350519018
    3         11.830460000000         0.589306443036
    4          4.339771000000         0.799517607364
    5          1.507524000000         0.432645443102
    6          0.503000000000        -0.063360294495
    7          2.572300000000        -0.908510889646
 D 7
    1        115.525300000000         0.016386902288
    2         33.465250000000         0.098640707434
    3         11.830460000000         0.271189473683
    4          4.339771000000         0.367925315773
    5          1.507524000000         0.199096567487
    6          0.503000000000         0.002328509325
    7          2.572300000000        -1.529453325973
 D 7
    1        115.525300000000         0.003969108465
    2         33.465250000000         0.023891987636
    3         11.830460000000         0.065685412451
    4          4.339771000000         0.089116018367
    5          1.507524000000         0.048223627471
    6          0.503000000000         1.066089086688
    7          2.572300000000        -0.494545335232
 F 1
    1          7.584100000000         1.000000000000
 end
  // -----------------------------------------------
  // The basis set
  // -----------------------------------------------
  BAS[ATNO] = new BFNGauss[NSH];
  // Basis function   1 L = s
  InitBFNGauss(BAS[ATNO][  0]);
  BAS[ATNO][  0].l  = 0;
  BAS[ATNO][  0].ng = 54;
  BAS[ATNO][  0].a[  0] =    681358.800000000047;     BAS[ATNO][  0].d[  0] =         0.000197075216;
  BAS[ATNO][  0].a[  1] =    102126.500000000000;     BAS[ATNO][  0].d[  1] =         0.001529960263;
  BAS[ATNO][  0].a[  2] =     23243.709999999999;     BAS[ATNO][  0].d[  2] =         0.007957074507;
  BAS[ATNO][  0].a[  3] =      6582.007000000000;     BAS[ATNO][  0].d[  3] =         0.032522715423;
  BAS[ATNO][  0].a[  4] =      2146.429000000000;     BAS[ATNO][  0].d[  4] =         0.106818971028;
  BAS[ATNO][  0].a[  5] =       774.337800000000;     BAS[ATNO][  0].d[  5] =         0.267808203965;
  BAS[ATNO][  0].a[  6] =       301.670200000000;     BAS[ATNO][  0].d[  6] =         0.420559012251;
  BAS[ATNO][  0].a[  7] =       123.411800000000;     BAS[ATNO][  0].d[  7] =         0.286055827634;
  BAS[ATNO][  0].a[  8] =        38.567550000000;     BAS[ATNO][  0].d[  8] =         0.032274795001;
  BAS[ATNO][  0].a[  9] =        16.637380000000;     BAS[ATNO][  0].d[  9] =        -0.007689636732;
  BAS[ATNO][  0].a[ 10] =         5.198795000000;     BAS[ATNO][  0].d[ 10] =         0.002941915610;
  BAS[ATNO][  0].a[ 11] =         2.294814000000;     BAS[ATNO][  0].d[ 11] =        -0.001467504735;
  BAS[ATNO][  0].a[ 12] =         0.485211000000;     BAS[ATNO][  0].d[ 12] =         0.000414768764;
  BAS[ATNO][  0].a[ 13] =    681358.800000000047;     BAS[ATNO][  0].d[ 13] =         0.000000009553;
  BAS[ATNO][  0].a[ 14] =    102126.500000000000;     BAS[ATNO][  0].d[ 14] =         0.000000073627;
  BAS[ATNO][  0].a[ 15] =     23243.709999999999;     BAS[ATNO][  0].d[ 15] =         0.000000389193;
  BAS[ATNO][  0].a[ 16] =      6582.007000000000;     BAS[ATNO][  0].d[ 16] =         0.000001591667;
  BAS[ATNO][  0].a[ 17] =      2146.429000000000;     BAS[ATNO][  0].d[ 17] =         0.000005582966;
  BAS[ATNO][  0].a[ 18] =       774.337800000000;     BAS[ATNO][  0].d[ 18] =         0.000015262052;
  BAS[ATNO][  0].a[ 19] =       301.670200000000;     BAS[ATNO][  0].d[ 19] =         0.000032876005;
  BAS[ATNO][  0].a[ 20] =       123.411800000000;     BAS[ATNO][  0].d[ 20] =         0.000028922517;
  BAS[ATNO][  0].a[ 21] =        38.567550000000;     BAS[ATNO][  0].d[ 21] =        -0.000070399352;
  BAS[ATNO][  0].a[ 22] =        16.637380000000;     BAS[ATNO][  0].d[ 22] =        -0.000099301227;
  BAS[ATNO][  0].a[ 23] =         5.198795000000;     BAS[ATNO][  0].d[ 23] =        -0.000013155547;
  BAS[ATNO][  0].a[ 24] =         2.294814000000;     BAS[ATNO][  0].d[ 24] =         0.000002397775;
  BAS[ATNO][  0].a[ 25] =         0.485211000000;     BAS[ATNO][  0].d[ 25] =        -0.000000560422;
  BAS[ATNO][  0].a[ 26] =    681358.800000000047;     BAS[ATNO][  0].d[ 26] =         0.000000267789;
  BAS[ATNO][  0].a[ 27] =    102126.500000000000;     BAS[ATNO][  0].d[ 27] =         0.000002073480;
  BAS[ATNO][  0].a[ 28] =     23243.709999999999;     BAS[ATNO][  0].d[ 28] =         0.000010914807;
  BAS[ATNO][  0].a[ 29] =      6582.007000000000;     BAS[ATNO][  0].d[ 29] =         0.000045015377;
  BAS[ATNO][  0].a[ 30] =      2146.429000000000;     BAS[ATNO][  0].d[ 30] =         0.000157510263;
  BAS[ATNO][  0].a[ 31] =       774.337800000000;     BAS[ATNO][  0].d[ 31] =         0.000442087846;
  BAS[ATNO][  0].a[ 32] =       301.670200000000;     BAS[ATNO][  0].d[ 32] =         0.000972164155;
  BAS[ATNO][  0].a[ 33] =       123.411800000000;     BAS[ATNO][  0].d[ 33] =         0.000957826171;
  BAS[ATNO][  0].a[ 34] =        38.567550000000;     BAS[ATNO][  0].d[ 34] =        -0.003157236598;
  BAS[ATNO][  0].a[ 35] =        16.637380000000;     BAS[ATNO][  0].d[ 35] =        -0.006194303853;
  BAS[ATNO][  0].a[ 36] =         5.198795000000;     BAS[ATNO][  0].d[ 36] =         0.005343488816;
  BAS[ATNO][  0].a[ 37] =         2.294814000000;     BAS[ATNO][  0].d[ 37] =         0.008191638181;
  BAS[ATNO][  0].a[ 38] =         0.485211000000;     BAS[ATNO][  0].d[ 38] =         0.000487468878;
  BAS[ATNO][  0].a[ 39] =    681358.800000000047;     BAS[ATNO][  0].d[ 39] =        -0.000000008037;
  BAS[ATNO][  0].a[ 40] =    102126.500000000000;     BAS[ATNO][  0].d[ 40] =        -0.000000062466;
  BAS[ATNO][  0].a[ 41] =     23243.709999999999;     BAS[ATNO][  0].d[ 41] =        -0.000000328606;
  BAS[ATNO][  0].a[ 42] =      6582.007000000000;     BAS[ATNO][  0].d[ 42] =        -0.000001356134;
  BAS[ATNO][  0].a[ 43] =      2146.429000000000;     BAS[ATNO][  0].d[ 43] =        -0.000004748197;
  BAS[ATNO][  0].a[ 44] =       774.337800000000;     BAS[ATNO][  0].d[ 44] =        -0.000013363156;
  BAS[ATNO][  0].a[ 45] =       301.670200000000;     BAS[ATNO][  0].d[ 45] =        -0.000029538076;
  BAS[ATNO][  0].a[ 46] =       123.411800000000;     BAS[ATNO][  0].d[ 46] =        -0.000029520882;
  BAS[ATNO][  0].a[ 47] =        38.567550000000;     BAS[ATNO][  0].d[ 47] =         0.000102006479;
  BAS[ATNO][  0].a[ 48] =        16.637380000000;     BAS[ATNO][  0].d[ 48] =         0.000214032882;
  BAS[ATNO][  0].a[ 49] =         5.198795000000;     BAS[ATNO][  0].d[ 49] =        -0.000237295000;
  BAS[ATNO][  0].a[ 50] =         2.294814000000;     BAS[ATNO][  0].d[ 50] =        -0.000564275399;
  BAS[ATNO][  0].a[ 51] =         0.485211000000;     BAS[ATNO][  0].d[ 51] =         0.000709047495;
  BAS[ATNO][  0].a[ 52] =         0.186270000000;     BAS[ATNO][  0].d[ 52] =        -0.000659665897;
  BAS[ATNO][  0].a[ 53] =         2.178900000000;     BAS[ATNO][  0].d[ 53] =        -0.010442144045;

  // Basis function   2 L = s
  InitBFNGauss(BAS[ATNO][  1]);
  BAS[ATNO][  1].l  = 0;
  BAS[ATNO][  1].ng = 54;
  BAS[ATNO][  1].a[  0] =    681358.800000000047;     BAS[ATNO][  1].d[  0] =        -0.000005454741;
  BAS[ATNO][  1].a[  1] =    102126.500000000000;     BAS[ATNO][  1].d[  1] =        -0.000042346964;
  BAS[ATNO][  1].a[  2] =     23243.709999999999;     BAS[ATNO][  1].d[  2] =        -0.000220239671;
  BAS[ATNO][  1].a[  3] =      6582.007000000000;     BAS[ATNO][  1].d[  3] =        -0.000900179098;
  BAS[ATNO][  1].a[  4] =      2146.429000000000;     BAS[ATNO][  1].d[  4] =        -0.002956585996;
  BAS[ATNO][  1].a[  5] =       774.337800000000;     BAS[ATNO][  1].d[  5] =        -0.007412522119;
  BAS[ATNO][  1].a[  6] =       301.670200000000;     BAS[ATNO][  1].d[  6] =        -0.011640431228;
  BAS[ATNO][  1].a[  7] =       123.411800000000;     BAS[ATNO][  1].d[  7] =        -0.007917588476;
  BAS[ATNO][  1].a[  8] =        38.567550000000;     BAS[ATNO][  1].d[  8] =        -0.000893317039;
  BAS[ATNO][  1].a[  9] =        16.637380000000;     BAS[ATNO][  1].d[  9] =         0.000212837402;
  BAS[ATNO][  1].a[ 10] =         5.198795000000;     BAS[ATNO][  1].d[ 10] =        -0.000081427732;
  BAS[ATNO][  1].a[ 11] =         2.294814000000;     BAS[ATNO][  1].d[ 11] =         0.000040618290;
  BAS[ATNO][  1].a[ 12] =         0.485211000000;     BAS[ATNO][  1].d[ 12] =        -0.000011480166;
  BAS[ATNO][  1].a[ 13] =    681358.800000000047;     BAS[ATNO][  1].d[ 13] =        -0.000050183444;
  BAS[ATNO][  1].a[ 14] =    102126.500000000000;     BAS[ATNO][  1].d[ 14] =        -0.000386783648;
  BAS[ATNO][  1].a[ 15] =     23243.709999999999;     BAS[ATNO][  1].d[ 15] =        -0.002044531586;
  BAS[ATNO][  1].a[ 16] =      6582.007000000000;     BAS[ATNO][  1].d[ 16] =        -0.008361433073;
  BAS[ATNO][  1].a[ 17] =      2146.429000000000;     BAS[ATNO][  1].d[ 17] =        -0.029328753569;
  BAS[ATNO][  1].a[ 18] =       774.337800000000;     BAS[ATNO][  1].d[ 18] =        -0.080175473942;
  BAS[ATNO][  1].a[ 19] =       301.670200000000;     BAS[ATNO][  1].d[ 19] =        -0.172706079451;
  BAS[ATNO][  1].a[ 20] =       123.411800000000;     BAS[ATNO][  1].d[ 20] =        -0.151937395029;
  BAS[ATNO][  1].a[ 21] =        38.567550000000;     BAS[ATNO][  1].d[ 21] =         0.369825839497;
  BAS[ATNO][  1].a[ 22] =        16.637380000000;     BAS[ATNO][  1].d[ 22] =         0.521654799561;
  BAS[ATNO][  1].a[ 23] =         5.198795000000;     BAS[ATNO][  1].d[ 23] =         0.069109459841;
  BAS[ATNO][  1].a[ 24] =         2.294814000000;     BAS[ATNO][  1].d[ 24] =        -0.012596125049;
  BAS[ATNO][  1].a[ 25] =         0.485211000000;     BAS[ATNO][  1].d[ 25] =         0.002944041577;
  BAS[ATNO][  1].a[ 26] =    681358.800000000047;     BAS[ATNO][  1].d[ 26] =        -0.000010283153;
  BAS[ATNO][  1].a[ 27] =    102126.500000000000;     BAS[ATNO][  1].d[ 27] =        -0.000079622163;
  BAS[ATNO][  1].a[ 28] =     23243.709999999999;     BAS[ATNO][  1].d[ 28] =        -0.000419131396;
  BAS[ATNO][  1].a[ 29] =      6582.007000000000;     BAS[ATNO][  1].d[ 29] =        -0.001728602111;
  BAS[ATNO][  1].a[ 30] =      2146.429000000000;     BAS[ATNO][  1].d[ 30] =        -0.006048434828;
  BAS[ATNO][  1].a[ 31] =       774.337800000000;     BAS[ATNO][  1].d[ 31] =        -0.016976287594;
  BAS[ATNO][  1].a[ 32] =       301.670200000000;     BAS[ATNO][  1].d[ 32] =        -0.037331354884;
  BAS[ATNO][  1].a[ 33] =       123.411800000000;     BAS[ATNO][  1].d[ 33] =        -0.036780772584;
  BAS[ATNO][  1].a[ 34] =        38.567550000000;     BAS[ATNO][  1].d[ 34] =         0.121238701592;
  BAS[ATNO][  1].a[ 35] =        16.637380000000;     BAS[ATNO][  1].d[ 35] =         0.237862869349;
  BAS[ATNO][  1].a[ 36] =         5.198795000000;     BAS[ATNO][  1].d[ 36] =        -0.205191351989;
  BAS[ATNO][  1].a[ 37] =         2.294814000000;     BAS[ATNO][  1].d[ 37] =        -0.314561023900;
  BAS[ATNO][  1].a[ 38] =         0.485211000000;     BAS[ATNO][  1].d[ 38] =        -0.018718930958;
  BAS[ATNO][  1].a[ 39] =    681358.800000000047;     BAS[ATNO][  1].d[ 39] =         0.000000189341;
  BAS[ATNO][  1].a[ 40] =    102126.500000000000;     BAS[ATNO][  1].d[ 40] =         0.000001471586;
  BAS[ATNO][  1].a[ 41] =     23243.709999999999;     BAS[ATNO][  1].d[ 41] =         0.000007741404;
  BAS[ATNO][  1].a[ 42] =      6582.007000000000;     BAS[ATNO][  1].d[ 42] =         0.000031948270;
  BAS[ATNO][  1].a[ 43] =      2146.429000000000;     BAS[ATNO][  1].d[ 43] =         0.000111859689;
  BAS[ATNO][  1].a[ 44] =       774.337800000000;     BAS[ATNO][  1].d[ 44] =         0.000314813889;
  BAS[ATNO][  1].a[ 45] =       301.670200000000;     BAS[ATNO][  1].d[ 45] =         0.000695868309;
  BAS[ATNO][  1].a[ 46] =       123.411800000000;     BAS[ATNO][  1].d[ 46] =         0.000695463263;
  BAS[ATNO][  1].a[ 47] =        38.567550000000;     BAS[ATNO][  1].d[ 47] =        -0.002403104276;
  BAS[ATNO][  1].a[ 48] =        16.637380000000;     BAS[ATNO][  1].d[ 48] =        -0.005042261448;
  BAS[ATNO][  1].a[ 49] =         5.198795000000;     BAS[ATNO][  1].d[ 49] =         0.005590278532;
  BAS[ATNO][  1].a[ 50] =         2.294814000000;     BAS[ATNO][  1].d[ 50] =         0.013293397049;
  BAS[ATNO][  1].a[ 51] =         0.485211000000;     BAS[ATNO][  1].d[ 51] =        -0.016703988695;
  BAS[ATNO][  1].a[ 52] =         0.186270000000;     BAS[ATNO][  1].d[ 52] =         0.012854066811;
  BAS[ATNO][  1].a[ 53] =         2.178900000000;     BAS[ATNO][  1].d[ 53] =         0.384229030872;

  // Basis function   3 L = s
  InitBFNGauss(BAS[ATNO][  2]);
  BAS[ATNO][  2].l  = 0;
  BAS[ATNO][  2].ng = 54;
  BAS[ATNO][  2].a[  0] =    681358.800000000047;     BAS[ATNO][  2].d[  0] =        -0.000042522710;
  BAS[ATNO][  2].a[  1] =    102126.500000000000;     BAS[ATNO][  2].d[  1] =        -0.000330117898;
  BAS[ATNO][  2].a[  2] =     23243.709999999999;     BAS[ATNO][  2].d[  2] =        -0.001716889498;
  BAS[ATNO][  2].a[  3] =      6582.007000000000;     BAS[ATNO][  2].d[  3] =        -0.007017391693;
  BAS[ATNO][  2].a[  4] =      2146.429000000000;     BAS[ATNO][  2].d[  4] =        -0.023048215692;
  BAS[ATNO][  2].a[  5] =       774.337800000000;     BAS[ATNO][  2].d[  5] =        -0.057784691143;
  BAS[ATNO][  2].a[  6] =       301.670200000000;     BAS[ATNO][  2].d[  6] =        -0.090743570475;
  BAS[ATNO][  2].a[  7] =       123.411800000000;     BAS[ATNO][  2].d[  7] =        -0.061721961481;
  BAS[ATNO][  2].a[  8] =        38.567550000000;     BAS[ATNO][  2].d[  8] =        -0.006963898167;
  BAS[ATNO][  2].a[  9] =        16.637380000000;     BAS[ATNO][  2].d[  9] =         0.001659184734;
  BAS[ATNO][  2].a[ 10] =         5.198795000000;     BAS[ATNO][  2].d[ 10] =        -0.000634774000;
  BAS[ATNO][  2].a[ 11] =         2.294814000000;     BAS[ATNO][  2].d[ 11] =         0.000316641935;
  BAS[ATNO][  2].a[ 12] =         0.485211000000;     BAS[ATNO][  2].d[ 12] =        -0.000089494215;
  BAS[ATNO][  2].a[ 13] =    681358.800000000047;     BAS[ATNO][  2].d[ 13] =         0.000082427296;
  BAS[ATNO][  2].a[ 14] =    102126.500000000000;     BAS[ATNO][  2].d[ 14] =         0.000635299770;
  BAS[ATNO][  2].a[ 15] =     23243.709999999999;     BAS[ATNO][  2].d[ 15] =         0.003358183450;
  BAS[ATNO][  2].a[ 16] =      6582.007000000000;     BAS[ATNO][  2].d[ 16] =         0.013733818715;
  BAS[ATNO][  2].a[ 17] =      2146.429000000000;     BAS[ATNO][  2].d[ 17] =         0.048173056120;
  BAS[ATNO][  2].a[ 18] =       774.337800000000;     BAS[ATNO][  2].d[ 18] =         0.131689797063;
  BAS[ATNO][  2].a[ 19] =       301.670200000000;     BAS[ATNO][  2].d[ 19] =         0.283673141377;
  BAS[ATNO][  2].a[ 20] =       123.411800000000;     BAS[ATNO][  2].d[ 20] =         0.249560167642;
  BAS[ATNO][  2].a[ 21] =        38.567550000000;     BAS[ATNO][  2].d[ 21] =        -0.607446234584;
  BAS[ATNO][  2].a[ 22] =        16.637380000000;     BAS[ATNO][  2].d[ 22] =        -0.856828295656;
  BAS[ATNO][  2].a[ 23] =         5.198795000000;     BAS[ATNO][  2].d[ 23] =        -0.113513650673;
  BAS[ATNO][  2].a[ 24] =         2.294814000000;     BAS[ATNO][  2].d[ 24] =         0.020689383798;
  BAS[ATNO][  2].a[ 25] =         0.485211000000;     BAS[ATNO][  2].d[ 25] =        -0.004835646348;
  BAS[ATNO][  2].a[ 26] =    681358.800000000047;     BAS[ATNO][  2].d[ 26] =        -0.000077103098;
  BAS[ATNO][  2].a[ 27] =    102126.500000000000;     BAS[ATNO][  2].d[ 27] =        -0.000597007121;
  BAS[ATNO][  2].a[ 28] =     23243.709999999999;     BAS[ATNO][  2].d[ 28] =        -0.003142647961;
  BAS[ATNO][  2].a[ 29] =      6582.007000000000;     BAS[ATNO][  2].d[ 29] =        -0.012961061749;
  BAS[ATNO][  2].a[ 30] =      2146.429000000000;     BAS[ATNO][  2].d[ 30] =        -0.045351175255;
  BAS[ATNO][  2].a[ 31] =       774.337800000000;     BAS[ATNO][  2].d[ 31] =        -0.127288235016;
  BAS[ATNO][  2].a[ 32] =       301.670200000000;     BAS[ATNO][  2].d[ 32] =        -0.279910566287;
  BAS[ATNO][  2].a[ 33] =       123.411800000000;     BAS[ATNO][  2].d[ 33] =        -0.275782299205;
  BAS[ATNO][  2].a[ 34] =        38.567550000000;     BAS[ATNO][  2].d[ 34] =         0.909048003316;
  BAS[ATNO][  2].a[ 35] =        16.637380000000;     BAS[ATNO][  2].d[ 35] =         1.783496223617;
  BAS[ATNO][  2].a[ 36] =         5.198795000000;     BAS[ATNO][  2].d[ 36] =        -1.538525127489;
  BAS[ATNO][  2].a[ 37] =         2.294814000000;     BAS[ATNO][  2].d[ 37] =        -2.358579124841;
  BAS[ATNO][  2].a[ 38] =         0.485211000000;     BAS[ATNO][  2].d[ 38] =        -0.140354578103;
  BAS[ATNO][  2].a[ 39] =    681358.800000000047;     BAS[ATNO][  2].d[ 39] =        -0.000000201896;
  BAS[ATNO][  2].a[ 40] =    102126.500000000000;     BAS[ATNO][  2].d[ 40] =        -0.000001569169;
  BAS[ATNO][  2].a[ 41] =     23243.709999999999;     BAS[ATNO][  2].d[ 41] =        -0.000008254750;
  BAS[ATNO][  2].a[ 42] =      6582.007000000000;     BAS[ATNO][  2].d[ 42] =        -0.000034066816;
  BAS[ATNO][  2].a[ 43] =      2146.429000000000;     BAS[ATNO][  2].d[ 43] =        -0.000119277301;
  BAS[ATNO][  2].a[ 44] =       774.337800000000;     BAS[ATNO][  2].d[ 44] =        -0.000335689751;
  BAS[ATNO][  2].a[ 45] =       301.670200000000;     BAS[ATNO][  2].d[ 45] =        -0.000742012560;
  BAS[ATNO][  2].a[ 46] =       123.411800000000;     BAS[ATNO][  2].d[ 46] =        -0.000741580655;
  BAS[ATNO][  2].a[ 47] =        38.567550000000;     BAS[ATNO][  2].d[ 47] =         0.002562458346;
  BAS[ATNO][  2].a[ 48] =        16.637380000000;     BAS[ATNO][  2].d[ 48] =         0.005376622670;
  BAS[ATNO][  2].a[ 49] =         5.198795000000;     BAS[ATNO][  2].d[ 49] =        -0.005960979731;
  BAS[ATNO][  2].a[ 50] =         2.294814000000;     BAS[ATNO][  2].d[ 50] =        -0.014174905580;
  BAS[ATNO][  2].a[ 51] =         0.485211000000;     BAS[ATNO][  2].d[ 51] =         0.017811659556;
  BAS[ATNO][  2].a[ 52] =         0.186270000000;     BAS[ATNO][  2].d[ 52] =         0.047410413384;
  BAS[ATNO][  2].a[ 53] =         2.178900000000;     BAS[ATNO][  2].d[ 53] =         2.541056236665;

  // Basis function   4 L = s
  InitBFNGauss(BAS[ATNO][  3]);
  BAS[ATNO][  3].l  = 0;
  BAS[ATNO][  3].ng = 54;
  BAS[ATNO][  3].a[  0] =    681358.800000000047;     BAS[ATNO][  3].d[  0] =        -0.000098644001;
  BAS[ATNO][  3].a[  1] =    102126.500000000000;     BAS[ATNO][  3].d[  1] =        -0.000765806094;
  BAS[ATNO][  3].a[  2] =     23243.709999999999;     BAS[ATNO][  3].d[  2] =        -0.003982832951;
  BAS[ATNO][  3].a[  3] =      6582.007000000000;     BAS[ATNO][  3].d[  3] =        -0.016278915389;
  BAS[ATNO][  3].a[  4] =      2146.429000000000;     BAS[ATNO][  3].d[  4] =        -0.053467152687;
  BAS[ATNO][  3].a[  5] =       774.337800000000;     BAS[ATNO][  3].d[  5] =        -0.134048680625;
  BAS[ATNO][  3].a[  6] =       301.670200000000;     BAS[ATNO][  3].d[  6] =        -0.210506548652;
  BAS[ATNO][  3].a[  7] =       123.411800000000;     BAS[ATNO][  3].d[  7] =        -0.143182343602;
  BAS[ATNO][  3].a[  8] =        38.567550000000;     BAS[ATNO][  3].d[  8] =        -0.016154821336;
  BAS[ATNO][  3].a[  9] =        16.637380000000;     BAS[ATNO][  3].d[  9] =         0.003848969685;
  BAS[ATNO][  3].a[ 10] =         5.198795000000;     BAS[ATNO][  3].d[ 10] =        -0.001472546024;
  BAS[ATNO][  3].a[ 11] =         2.294814000000;     BAS[ATNO][  3].d[ 11] =         0.000734544613;
  BAS[ATNO][  3].a[ 12] =         0.485211000000;     BAS[ATNO][  3].d[ 12] =        -0.000207608299;
  BAS[ATNO][  3].a[ 13] =    681358.800000000047;     BAS[ATNO][  3].d[ 13] =         0.000178338467;
  BAS[ATNO][  3].a[ 14] =    102126.500000000000;     BAS[ATNO][  3].d[ 14] =         0.001374525098;
  BAS[ATNO][  3].a[ 15] =     23243.709999999999;     BAS[ATNO][  3].d[ 15] =         0.007265715585;
  BAS[ATNO][  3].a[ 16] =      6582.007000000000;     BAS[ATNO][  3].d[ 16] =         0.029714285164;
  BAS[ATNO][  3].a[ 17] =      2146.429000000000;     BAS[ATNO][  3].d[ 17] =         0.104226505131;
  BAS[ATNO][  3].a[ 18] =       774.337800000000;     BAS[ATNO][  3].d[ 18] =         0.284922079163;
  BAS[ATNO][  3].a[ 19] =       301.670200000000;     BAS[ATNO][  3].d[ 19] =         0.613750974229;
  BAS[ATNO][  3].a[ 20] =       123.411800000000;     BAS[ATNO][  3].d[ 20] =         0.539944653468;
  BAS[ATNO][  3].a[ 21] =        38.567550000000;     BAS[ATNO][  3].d[ 21] =        -1.314261605658;
  BAS[ATNO][  3].a[ 22] =        16.637380000000;     BAS[ATNO][  3].d[ 22] =        -1.853820910413;
  BAS[ATNO][  3].a[ 23] =         5.198795000000;     BAS[ATNO][  3].d[ 23] =        -0.245596440152;
  BAS[ATNO][  3].a[ 24] =         2.294814000000;     BAS[ATNO][  3].d[ 24] =         0.044763241950;
  BAS[ATNO][  3].a[ 25] =         0.485211000000;     BAS[ATNO][  3].d[ 25] =        -0.010462332256;
  BAS[ATNO][  3].a[ 26] =    681358.800000000047;     BAS[ATNO][  3].d[ 26] =        -0.000114609767;
  BAS[ATNO][  3].a[ 27] =    102126.500000000000;     BAS[ATNO][  3].d[ 27] =        -0.000887420205;
  BAS[ATNO][  3].a[ 28] =     23243.709999999999;     BAS[ATNO][  3].d[ 28] =        -0.004671383644;
  BAS[ATNO][  3].a[ 29] =      6582.007000000000;     BAS[ATNO][  3].d[ 29] =        -0.019265947895;
  BAS[ATNO][  3].a[ 30] =      2146.429000000000;     BAS[ATNO][  3].d[ 30] =        -0.067412176285;
  BAS[ATNO][  3].a[ 31] =       774.337800000000;     BAS[ATNO][  3].d[ 31] =        -0.189207377528;
  BAS[ATNO][  3].a[ 32] =       301.670200000000;     BAS[ATNO][  3].d[ 32] =        -0.416072578766;
  BAS[ATNO][  3].a[ 33] =       123.411800000000;     BAS[ATNO][  3].d[ 33] =        -0.409936123278;
  BAS[ATNO][  3].a[ 34] =        38.567550000000;     BAS[ATNO][  3].d[ 34] =         1.351252837574;
  BAS[ATNO][  3].a[ 35] =        16.637380000000;     BAS[ATNO][  3].d[ 35] =         2.651074887325;
  BAS[ATNO][  3].a[ 36] =         5.198795000000;     BAS[ATNO][  3].d[ 36] =        -2.286938023749;
  BAS[ATNO][  3].a[ 37] =         2.294814000000;     BAS[ATNO][  3].d[ 37] =        -3.505905874559;
  BAS[ATNO][  3].a[ 38] =         0.485211000000;     BAS[ATNO][  3].d[ 38] =        -0.208629820687;
  BAS[ATNO][  3].a[ 39] =    681358.800000000047;     BAS[ATNO][  3].d[ 39] =        -0.000001859181;
  BAS[ATNO][  3].a[ 40] =    102126.500000000000;     BAS[ATNO][  3].d[ 40] =        -0.000014449839;
  BAS[ATNO][  3].a[ 41] =     23243.709999999999;     BAS[ATNO][  3].d[ 41] =        -0.000076014626;
  BAS[ATNO][  3].a[ 42] =      6582.007000000000;     BAS[ATNO][  3].d[ 42] =        -0.000313707420;
  BAS[ATNO][  3].a[ 43] =      2146.429000000000;     BAS[ATNO][  3].d[ 43] =        -0.001098376046;
  BAS[ATNO][  3].a[ 44] =       774.337800000000;     BAS[ATNO][  3].d[ 44] =        -0.003091230081;
  BAS[ATNO][  3].a[ 45] =       301.670200000000;     BAS[ATNO][  3].d[ 45] =        -0.006832891195;
  BAS[ATNO][  3].a[ 46] =       123.411800000000;     BAS[ATNO][  3].d[ 46] =        -0.006828913960;
  BAS[ATNO][  3].a[ 47] =        38.567550000000;     BAS[ATNO][  3].d[ 47] =         0.023596634375;
  BAS[ATNO][  3].a[ 48] =        16.637380000000;     BAS[ATNO][  3].d[ 48] =         0.049511126496;
  BAS[ATNO][  3].a[ 49] =         5.198795000000;     BAS[ATNO][  3].d[ 49] =        -0.054892232469;
  BAS[ATNO][  3].a[ 50] =         2.294814000000;     BAS[ATNO][  3].d[ 50] =        -0.130530927378;
  BAS[ATNO][  3].a[ 51] =         0.485211000000;     BAS[ATNO][  3].d[ 51] =         0.164020312287;
  BAS[ATNO][  3].a[ 52] =         0.186270000000;     BAS[ATNO][  3].d[ 52] =         0.019304409693;
  BAS[ATNO][  3].a[ 53] =         2.178900000000;     BAS[ATNO][  3].d[ 53] =         5.888997743597;

  // Basis function   5 L = s
  InitBFNGauss(BAS[ATNO][  4]);
  BAS[ATNO][  4].l  = 0;
  BAS[ATNO][  4].ng = 54;
  BAS[ATNO][  4].a[  0] =    681358.800000000047;     BAS[ATNO][  4].d[  0] =        -0.000087501430;
  BAS[ATNO][  4].a[  1] =    102126.500000000000;     BAS[ATNO][  4].d[  1] =        -0.000679302621;
  BAS[ATNO][  4].a[  2] =     23243.709999999999;     BAS[ATNO][  4].d[  2] =        -0.003532942453;
  BAS[ATNO][  4].a[  3] =      6582.007000000000;     BAS[ATNO][  4].d[  3] =        -0.014440091254;
  BAS[ATNO][  4].a[  4] =      2146.429000000000;     BAS[ATNO][  4].d[  4] =        -0.047427641550;
  BAS[ATNO][  4].a[  5] =       774.337800000000;     BAS[ATNO][  4].d[  5] =        -0.118906888725;
  BAS[ATNO][  4].a[  6] =       301.670200000000;     BAS[ATNO][  4].d[  6] =        -0.186728273936;
  BAS[ATNO][  4].a[  7] =       123.411800000000;     BAS[ATNO][  4].d[  7] =        -0.127008836780;
  BAS[ATNO][  4].a[  8] =        38.567550000000;     BAS[ATNO][  4].d[  8] =        -0.014330014544;
  BAS[ATNO][  4].a[  9] =        16.637380000000;     BAS[ATNO][  4].d[  9] =         0.003414200035;
  BAS[ATNO][  4].a[ 10] =         5.198795000000;     BAS[ATNO][  4].d[ 10] =        -0.001306211038;
  BAS[ATNO][  4].a[ 11] =         2.294814000000;     BAS[ATNO][  4].d[ 11] =         0.000651572355;
  BAS[ATNO][  4].a[ 12] =         0.485211000000;     BAS[ATNO][  4].d[ 12] =        -0.000184157403;
  BAS[ATNO][  4].a[ 13] =    681358.800000000047;     BAS[ATNO][  4].d[ 13] =         0.000159368780;
  BAS[ATNO][  4].a[ 14] =    102126.500000000000;     BAS[ATNO][  4].d[ 14] =         0.001228318221;
  BAS[ATNO][  4].a[ 15] =     23243.709999999999;     BAS[ATNO][  4].d[ 15] =         0.006492868591;
  BAS[ATNO][  4].a[ 16] =      6582.007000000000;     BAS[ATNO][  4].d[ 16] =         0.026553605987;
  BAS[ATNO][  4].a[ 17] =      2146.429000000000;     BAS[ATNO][  4].d[ 17] =         0.093140034678;
  BAS[ATNO][  4].a[ 18] =       774.337800000000;     BAS[ATNO][  4].d[ 18] =         0.254615198894;
  BAS[ATNO][  4].a[ 19] =       301.670200000000;     BAS[ATNO][  4].d[ 19] =         0.548466889030;
  BAS[ATNO][  4].a[ 20] =       123.411800000000;     BAS[ATNO][  4].d[ 20] =         0.482511273743;
  BAS[ATNO][  4].a[ 21] =        38.567550000000;     BAS[ATNO][  4].d[ 21] =        -1.174464896178;
  BAS[ATNO][  4].a[ 22] =        16.637380000000;     BAS[ATNO][  4].d[ 22] =        -1.656631810369;
  BAS[ATNO][  4].a[ 23] =         5.198795000000;     BAS[ATNO][  4].d[ 23] =        -0.219472589280;
  BAS[ATNO][  4].a[ 24] =         2.294814000000;     BAS[ATNO][  4].d[ 24] =         0.040001820096;
  BAS[ATNO][  4].a[ 25] =         0.485211000000;     BAS[ATNO][  4].d[ 25] =        -0.009349464303;
  BAS[ATNO][  4].a[ 26] =    681358.800000000047;     BAS[ATNO][  4].d[ 26] =        -0.000120918869;
  BAS[ATNO][  4].a[ 27] =    102126.500000000000;     BAS[ATNO][  4].d[ 27] =        -0.000936271405;
[...]
  BAS[ATNO][  6].a[ 31] =         2.632000000000;     BAS[ATNO][  6].d[ 31] =         0.229208666861;

  // Basis function   8 L = p
  InitBFNGauss(BAS[ATNO][  7]);
  BAS[ATNO][  7].l  = 1;
  BAS[ATNO][  7].ng = 32;
  BAS[ATNO][  7].a[  0] =      4474.270000000000;     BAS[ATNO][  7].d[  0] =        -0.000677004009;
  BAS[ATNO][  7].a[  1] =      1060.579000000000;     BAS[ATNO][  7].d[  1] =        -0.005677299038;
  BAS[ATNO][  7].a[  2] =       342.208100000000;     BAS[ATNO][  7].d[  2] =        -0.028357312063;
  BAS[ATNO][  7].a[  3] =       128.998400000000;     BAS[ATNO][  7].d[  3] =        -0.092924202501;
  BAS[ATNO][  7].a[  4] =        53.087220000000;     BAS[ATNO][  7].d[  4] =        -0.183672056542;
  BAS[ATNO][  7].a[  5] =        22.959420000000;     BAS[ATNO][  7].d[  5] =        -0.172786527121;
  BAS[ATNO][  7].a[  6] =         9.507300000000;     BAS[ATNO][  7].d[  6] =        -0.044724591290;
  BAS[ATNO][  7].a[  7] =         4.083055000000;     BAS[ATNO][  7].d[  7] =         0.001117335080;
  BAS[ATNO][  7].a[  8] =         1.750446000000;     BAS[ATNO][  7].d[  8] =        -0.001209161685;
  BAS[ATNO][  7].a[  9] =         0.529190000000;     BAS[ATNO][  7].d[  9] =         0.000310856003;
  BAS[ATNO][  7].a[ 10] =      4474.270000000000;     BAS[ATNO][  7].d[ 10] =         0.001387336764;
  BAS[ATNO][  7].a[ 11] =      1060.579000000000;     BAS[ATNO][  7].d[ 11] =         0.011668110035;
  BAS[ATNO][  7].a[ 12] =       342.208100000000;     BAS[ATNO][  7].d[ 12] =         0.059994940327;
  BAS[ATNO][  7].a[ 13] =       128.998400000000;     BAS[ATNO][  7].d[ 13] =         0.204664129638;
  BAS[ATNO][  7].a[ 14] =        53.087220000000;     BAS[ATNO][  7].d[ 14] =         0.439836706487;
  BAS[ATNO][  7].a[ 15] =        22.959420000000;     BAS[ATNO][  7].d[ 15] =         0.365326799967;
  BAS[ATNO][  7].a[ 16] =         9.507300000000;     BAS[ATNO][  7].d[ 16] =        -0.611921887124;
  BAS[ATNO][  7].a[ 17] =         4.083055000000;     BAS[ATNO][  7].d[ 17] =        -1.336740091186;
  BAS[ATNO][  7].a[ 18] =         1.750446000000;     BAS[ATNO][  7].d[ 18] =        -0.614659240219;
  BAS[ATNO][  7].a[ 19] =         0.529190000000;     BAS[ATNO][  7].d[ 19] =        -0.028539179885;
  BAS[ATNO][  7].a[ 20] =      4474.270000000000;     BAS[ATNO][  7].d[ 20] =         0.000017758549;
  BAS[ATNO][  7].a[ 21] =      1060.579000000000;     BAS[ATNO][  7].d[ 21] =         0.000146829059;
  BAS[ATNO][  7].a[ 22] =       342.208100000000;     BAS[ATNO][  7].d[ 22] =         0.000772178446;
  BAS[ATNO][  7].a[ 23] =       128.998400000000;     BAS[ATNO][  7].d[ 23] =         0.002591787624;
  BAS[ATNO][  7].a[ 24] =        53.087220000000;     BAS[ATNO][  7].d[ 24] =         0.005816733803;
  BAS[ATNO][  7].a[ 25] =        22.959420000000;     BAS[ATNO][  7].d[ 25] =         0.004302684416;
  BAS[ATNO][  7].a[ 26] =         9.507300000000;     BAS[ATNO][  7].d[ 26] =        -0.009146091061;
  BAS[ATNO][  7].a[ 27] =         4.083055000000;     BAS[ATNO][  7].d[ 27] =        -0.025479873796;
  BAS[ATNO][  7].a[ 28] =         1.750446000000;     BAS[ATNO][  7].d[ 28] =        -0.003079891931;
  BAS[ATNO][  7].a[ 29] =         0.529190000000;     BAS[ATNO][  7].d[ 29] =         0.062768743993;
  BAS[ATNO][  7].a[ 30] =         0.164369000000;     BAS[ATNO][  7].d[ 30] =        -0.003874936716;
  BAS[ATNO][  7].a[ 31] =         2.632000000000;     BAS[ATNO][  7].d[ 31] =         1.475988389070;

  // Basis function   9 L = p
  InitBFNGauss(BAS[ATNO][  8]);
  BAS[ATNO][  8].l  = 1;
  BAS[ATNO][  8].ng = 32;
  BAS[ATNO][  8].a[  0] =      4474.270000000000;     BAS[ATNO][  8].d[  0] =        -0.001038348538;
  BAS[ATNO][  8].a[  1] =      1060.579000000000;     BAS[ATNO][  8].d[  1] =        -0.008707504054;
  BAS[ATNO][  8].a[  2] =       342.208100000000;     BAS[ATNO][  8].d[  2] =        -0.043492760922;
  BAS[ATNO][  8].a[  3] =       128.998400000000;     BAS[ATNO][  8].d[  3] =        -0.142521622439;
  BAS[ATNO][  8].a[  4] =        53.087220000000;     BAS[ATNO][  8].d[  4] =        -0.281705290877;
  BAS[ATNO][  8].a[  5] =        22.959420000000;     BAS[ATNO][  8].d[  5] =        -0.265009712411;
  BAS[ATNO][  8].a[  6] =         9.507300000000;     BAS[ATNO][  8].d[  6] =        -0.068595921643;
  BAS[ATNO][  8].a[  7] =         4.083055000000;     BAS[ATNO][  8].d[  7] =         0.001713702181;
  BAS[ATNO][  8].a[  8] =         1.750446000000;     BAS[ATNO][  8].d[  8] =        -0.001854540373;
  BAS[ATNO][  8].a[  9] =         0.529190000000;     BAS[ATNO][  8].d[  9] =         0.000476772474;
  BAS[ATNO][  8].a[ 10] =      4474.270000000000;     BAS[ATNO][  8].d[ 10] =         0.001348595560;
  BAS[ATNO][  8].a[ 11] =      1060.579000000000;     BAS[ATNO][  8].d[ 11] =         0.011342279539;
  BAS[ATNO][  8].a[ 12] =       342.208100000000;     BAS[ATNO][  8].d[ 12] =         0.058319589209;
  BAS[ATNO][  8].a[ 13] =       128.998400000000;     BAS[ATNO][  8].d[ 13] =         0.198948909714;
  BAS[ATNO][  8].a[ 14] =        53.087220000000;     BAS[ATNO][  8].d[ 14] =         0.427554322110;
  BAS[ATNO][  8].a[ 15] =        22.959420000000;     BAS[ATNO][  8].d[ 15] =         0.355125095302;
  BAS[ATNO][  8].a[ 16] =         9.507300000000;     BAS[ATNO][  8].d[ 16] =        -0.594834045852;
  BAS[ATNO][  8].a[ 17] =         4.083055000000;     BAS[ATNO][  8].d[ 17] =        -1.299411793276;
  BAS[ATNO][  8].a[ 18] =         1.750446000000;     BAS[ATNO][  8].d[ 18] =        -0.597494958709;
  BAS[ATNO][  8].a[ 19] =         0.529190000000;     BAS[ATNO][  8].d[ 19] =        -0.027742226897;
  BAS[ATNO][  8].a[ 20] =      4474.270000000000;     BAS[ATNO][  8].d[ 20] =         0.000014745279;
  BAS[ATNO][  8].a[ 21] =      1060.579000000000;     BAS[ATNO][  8].d[ 21] =         0.000121915111;
  BAS[ATNO][  8].a[ 22] =       342.208100000000;     BAS[ATNO][  8].d[ 22] =         0.000641155243;
  BAS[ATNO][  8].a[ 23] =       128.998400000000;     BAS[ATNO][  8].d[ 23] =         0.002152013217;
  BAS[ATNO][  8].a[ 24] =        53.087220000000;     BAS[ATNO][  8].d[ 24] =         0.004829750674;
  BAS[ATNO][  8].a[ 25] =        22.959420000000;     BAS[ATNO][  8].d[ 25] =         0.003572605119;
  BAS[ATNO][  8].a[ 26] =         9.507300000000;     BAS[ATNO][  8].d[ 26] =        -0.007594182744;
  BAS[ATNO][  8].a[ 27] =         4.083055000000;     BAS[ATNO][  8].d[ 27] =        -0.021156449964;
  BAS[ATNO][  8].a[ 28] =         1.750446000000;     BAS[ATNO][  8].d[ 28] =        -0.002557296008;
  BAS[ATNO][  8].a[ 29] =         0.529190000000;     BAS[ATNO][  8].d[ 29] =         0.052118146353;
  BAS[ATNO][  8].a[ 30] =         0.164369000000;     BAS[ATNO][  8].d[ 30] =         0.001329783676;
  BAS[ATNO][  8].a[ 31] =         2.632000000000;     BAS[ATNO][  8].d[ 31] =         2.864972126926;

  // Basis function  10 L = p
  InitBFNGauss(BAS[ATNO][  9]);
  BAS[ATNO][  9].l  = 1;
  BAS[ATNO][  9].ng = 32;
  BAS[ATNO][  9].a[  0] =      4474.270000000000;     BAS[ATNO][  9].d[  0] =        -0.000612760348;
  BAS[ATNO][  9].a[  1] =      1060.579000000000;     BAS[ATNO][  9].d[  1] =        -0.005138557062;
  BAS[ATNO][  9].a[  2] =       342.208100000000;     BAS[ATNO][  9].d[  2] =        -0.025666371488;
  BAS[ATNO][  9].a[  3] =       128.998400000000;     BAS[ATNO][  9].d[  3] =        -0.084106247317;
  BAS[ATNO][  9].a[  4] =        53.087220000000;     BAS[ATNO][  9].d[  4] =        -0.166242668724;
  BAS[ATNO][  9].a[  5] =        22.959420000000;     BAS[ATNO][  9].d[  5] =        -0.156390111424;
  BAS[ATNO][  9].a[  6] =         9.507300000000;     BAS[ATNO][  9].d[  6] =        -0.040480493079;
  BAS[ATNO][  9].a[  7] =         4.083055000000;     BAS[ATNO][  9].d[  7] =         0.001011306614;
  BAS[ATNO][  9].a[  8] =         1.750446000000;     BAS[ATNO][  9].d[  8] =        -0.001094419419;
  BAS[ATNO][  9].a[  9] =         0.529190000000;     BAS[ATNO][  9].d[  9] =         0.000281357614;
  BAS[ATNO][  9].a[ 10] =      4474.270000000000;     BAS[ATNO][  9].d[ 10] =         0.001081679449;
  BAS[ATNO][  9].a[ 11] =      1060.579000000000;     BAS[ATNO][  9].d[ 11] =         0.009097398094;
  BAS[ATNO][  9].a[ 12] =       342.208100000000;     BAS[ATNO][  9].d[ 12] =         0.046776886243;
  BAS[ATNO][  9].a[ 13] =       128.998400000000;     BAS[ATNO][  9].d[ 13] =         0.159572634926;
  BAS[ATNO][  9].a[ 14] =        53.087220000000;     BAS[ATNO][  9].d[ 14] =         0.342932111823;
  BAS[ATNO][  9].a[ 15] =        22.959420000000;     BAS[ATNO][  9].d[ 15] =         0.284838189197;
  BAS[ATNO][  9].a[ 16] =         9.507300000000;     BAS[ATNO][  9].d[ 16] =        -0.477103574866;
  BAS[ATNO][  9].a[ 17] =         4.083055000000;     BAS[ATNO][  9].d[ 17] =        -1.042230208776;
  BAS[ATNO][  9].a[ 18] =         1.750446000000;     BAS[ATNO][  9].d[ 18] =        -0.479237835750;
  BAS[ATNO][  9].a[ 19] =         0.529190000000;     BAS[ATNO][  9].d[ 19] =        -0.022251442600;
  BAS[ATNO][  9].a[ 20] =      4474.270000000000;     BAS[ATNO][  9].d[ 20] =        -0.000367285620;
  BAS[ATNO][  9].a[ 21] =      1060.579000000000;     BAS[ATNO][  9].d[ 21] =        -0.003036746012;
  BAS[ATNO][  9].a[ 22] =       342.208100000000;     BAS[ATNO][  9].d[ 22] =        -0.015970338827;
  BAS[ATNO][  9].a[ 23] =       128.998400000000;     BAS[ATNO][  9].d[ 23] =        -0.053603835637;
  BAS[ATNO][  9].a[ 24] =        53.087220000000;     BAS[ATNO][  9].d[ 24] =        -0.120302774757;
  BAS[ATNO][  9].a[ 25] =        22.959420000000;     BAS[ATNO][  9].d[ 25] =        -0.088988922591;
  BAS[ATNO][  9].a[ 26] =         9.507300000000;     BAS[ATNO][  9].d[ 26] =         0.189161163312;
  BAS[ATNO][  9].a[ 27] =         4.083055000000;     BAS[ATNO][  9].d[ 27] =         0.526979508094;
  BAS[ATNO][  9].a[ 28] =         1.750446000000;     BAS[ATNO][  9].d[ 28] =         0.063698900077;
  BAS[ATNO][  9].a[ 29] =         0.529190000000;     BAS[ATNO][  9].d[ 29] =        -1.298194885007;
  BAS[ATNO][  9].a[ 30] =         0.164369000000;     BAS[ATNO][  9].d[ 30] =         0.261182613774;
  BAS[ATNO][  9].a[ 31] =         2.632000000000;     BAS[ATNO][  9].d[ 31] =         1.655472033992;

  // Basis function  11 L = p
  InitBFNGauss(BAS[ATNO][ 10]);
  BAS[ATNO][ 10].l  = 1;
  BAS[ATNO][ 10].ng = 32;
  BAS[ATNO][ 10].a[  0] =      4474.270000000000;     BAS[ATNO][ 10].d[  0] =        -0.000225317532;
  BAS[ATNO][ 10].a[  1] =      1060.579000000000;     BAS[ATNO][ 10].d[  1] =        -0.001889493991;
  BAS[ATNO][ 10].a[  2] =       342.208100000000;     BAS[ATNO][ 10].d[  2] =        -0.009437757354;
  BAS[ATNO][ 10].a[  3] =       128.998400000000;     BAS[ATNO][ 10].d[  3] =        -0.030926629207;
  BAS[ATNO][ 10].a[  4] =        53.087220000000;     BAS[ATNO][ 10].d[  4] =        -0.061128935579;
  BAS[ATNO][ 10].a[  5] =        22.959420000000;     BAS[ATNO][ 10].d[  5] =        -0.057506060988;
  BAS[ATNO][ 10].a[  6] =         9.507300000000;     BAS[ATNO][ 10].d[  6] =        -0.014885044090;
  BAS[ATNO][ 10].a[  7] =         4.083055000000;     BAS[ATNO][ 10].d[  7] =         0.000371866605;
  BAS[ATNO][ 10].a[  8] =         1.750446000000;     BAS[ATNO][ 10].d[  8] =        -0.000402427937;
  BAS[ATNO][ 10].a[  9] =         0.529190000000;     BAS[ATNO][ 10].d[  9] =         0.000103457744;
  BAS[ATNO][ 10].a[ 10] =      4474.270000000000;     BAS[ATNO][ 10].d[ 10] =         0.000484408412;
  BAS[ATNO][ 10].a[ 11] =      1060.579000000000;     BAS[ATNO][ 10].d[ 11] =         0.004074086987;
  BAS[ATNO][ 10].a[ 12] =       342.208100000000;     BAS[ATNO][ 10].d[ 12] =         0.020948088846;
  BAS[ATNO][ 10].a[ 13] =       128.998400000000;     BAS[ATNO][ 10].d[ 13] =         0.071461399043;
  BAS[ATNO][ 10].a[ 14] =        53.087220000000;     BAS[ATNO][ 10].d[ 14] =         0.153575257431;
  BAS[ATNO][ 10].a[ 15] =        22.959420000000;     BAS[ATNO][ 10].d[ 15] =         0.127559061178;
  BAS[ATNO][ 10].a[ 16] =         9.507300000000;     BAS[ATNO][ 10].d[ 16] =        -0.213661251907;
  BAS[ATNO][ 10].a[ 17] =         4.083055000000;     BAS[ATNO][ 10].d[ 17] =        -0.466741862592;
  BAS[ATNO][ 10].a[ 18] =         1.750446000000;     BAS[ATNO][ 10].d[ 18] =        -0.214617037770;
  BAS[ATNO][ 10].a[ 19] =         0.529190000000;     BAS[ATNO][ 10].d[ 19] =        -0.009964861579;
  BAS[ATNO][ 10].a[ 20] =      4474.270000000000;     BAS[ATNO][ 10].d[ 20] =        -0.000232868833;
  BAS[ATNO][ 10].a[ 21] =      1060.579000000000;     BAS[ATNO][ 10].d[ 21] =        -0.001925377581;
  BAS[ATNO][ 10].a[ 22] =       342.208100000000;     BAS[ATNO][ 10].d[ 22] =        -0.010125618746;
  BAS[ATNO][ 10].a[ 23] =       128.998400000000;     BAS[ATNO][ 10].d[ 23] =        -0.033986254696;
  BAS[ATNO][ 10].a[ 24] =        53.087220000000;     BAS[ATNO][ 10].d[ 24] =        -0.076275152607;
  BAS[ATNO][ 10].a[ 25] =        22.959420000000;     BAS[ATNO][ 10].d[ 25] =        -0.056421339114;
  BAS[ATNO][ 10].a[ 26] =         9.507300000000;     BAS[ATNO][ 10].d[ 26] =         0.119933198781;
  BAS[ATNO][ 10].a[ 27] =         4.083055000000;     BAS[ATNO][ 10].d[ 27] =         0.334118996688;
  BAS[ATNO][ 10].a[ 28] =         1.750446000000;     BAS[ATNO][ 10].d[ 28] =         0.040386793522;
  BAS[ATNO][ 10].a[ 29] =         0.529190000000;     BAS[ATNO][ 10].d[ 29] =        -0.823090017393;
  BAS[ATNO][ 10].a[ 30] =         0.164369000000;     BAS[ATNO][ 10].d[ 30] =         1.363389715773;
  BAS[ATNO][ 10].a[ 31] =         2.632000000000;     BAS[ATNO][ 10].d[ 31] =         0.543329439420;

  // Basis function  12 L = d
  InitBFNGauss(BAS[ATNO][ 11]);
  BAS[ATNO][ 11].l  = 2;
  BAS[ATNO][ 11].ng = 7;
  BAS[ATNO][ 11].a[  0] =       115.525300000000;     BAS[ATNO][ 11].d[  0] =        -0.035609446667;
  BAS[ATNO][ 11].a[  1] =        33.465250000000;     BAS[ATNO][ 11].d[  1] =        -0.214350519018;
  BAS[ATNO][ 11].a[  2] =        11.830460000000;     BAS[ATNO][ 11].d[  2] =        -0.589306443036;
  BAS[ATNO][ 11].a[  3] =         4.339771000000;     BAS[ATNO][ 11].d[  3] =        -0.799517607364;
  BAS[ATNO][ 11].a[  4] =         1.507524000000;     BAS[ATNO][ 11].d[  4] =        -0.432645443102;
  BAS[ATNO][ 11].a[  5] =         0.503000000000;     BAS[ATNO][ 11].d[  5] =         0.063360294495;
  BAS[ATNO][ 11].a[  6] =         2.572300000000;     BAS[ATNO][ 11].d[  6] =         0.908510889646;

  // Basis function  13 L = d
  InitBFNGauss(BAS[ATNO][ 12]);
  BAS[ATNO][ 12].l  = 2;
  BAS[ATNO][ 12].ng = 7;
  BAS[ATNO][ 12].a[  0] =       115.525300000000;     BAS[ATNO][ 12].d[  0] =        -0.016386902288;
  BAS[ATNO][ 12].a[  1] =        33.465250000000;     BAS[ATNO][ 12].d[  1] =        -0.098640707434;
  BAS[ATNO][ 12].a[  2] =        11.830460000000;     BAS[ATNO][ 12].d[  2] =        -0.271189473683;
  BAS[ATNO][ 12].a[  3] =         4.339771000000;     BAS[ATNO][ 12].d[  3] =        -0.367925315773;
  BAS[ATNO][ 12].a[  4] =         1.507524000000;     BAS[ATNO][ 12].d[  4] =        -0.199096567487;
  BAS[ATNO][ 12].a[  5] =         0.503000000000;     BAS[ATNO][ 12].d[  5] =        -0.002328509325;
  BAS[ATNO][ 12].a[  6] =         2.572300000000;     BAS[ATNO][ 12].d[  6] =         1.529453325973;

  // Basis function  14 L = d
  InitBFNGauss(BAS[ATNO][ 13]);
  BAS[ATNO][ 13].l  = 2;
  BAS[ATNO][ 13].ng = 7;
  BAS[ATNO][ 13].a[  0] =       115.525300000000;     BAS[ATNO][ 13].d[  0] =         0.003969108465;
  BAS[ATNO][ 13].a[  1] =        33.465250000000;     BAS[ATNO][ 13].d[  1] =         0.023891987636;
  BAS[ATNO][ 13].a[  2] =        11.830460000000;     BAS[ATNO][ 13].d[  2] =         0.065685412451;
  BAS[ATNO][ 13].a[  3] =         4.339771000000;     BAS[ATNO][ 13].d[  3] =         0.089116018367;
  BAS[ATNO][ 13].a[  4] =         1.507524000000;     BAS[ATNO][ 13].d[  4] =         0.048223627471;
  BAS[ATNO][ 13].a[  5] =         0.503000000000;     BAS[ATNO][ 13].d[  5] =         1.066089086688;
  BAS[ATNO][ 13].a[  6] =         2.572300000000;     BAS[ATNO][ 13].d[  6] =        -0.494545335232;

  // Basis function  15 L = f
  InitBFNGauss(BAS[ATNO][ 14]);
  BAS[ATNO][ 14].l  = 3;
  BAS[ATNO][ 14].ng = 1;
  BAS[ATNO][ 14].a[  0] =         7.584100000000;     BAS[ATNO][ 14].d[  0] =         1.000000000000;

-------
TIMINGS
-------

Total SCF time: 0 days 0 hours 0 min 2 sec 

Total time                  ....       2.494 sec
Sum of individual times     ....       2.297 sec  ( 92.1%)

Fock matrix formation       ....       1.573 sec  ( 63.1%)
  XC integration            ....       0.025 sec  (  1.6% of F)
    Basis function eval.    ....       0.007 sec  ( 29.4% of XC)
    Density eval.           ....       0.001 sec  (  4.7% of XC)
    XC-Functional eval.     ....       0.002 sec  (  6.6% of XC)
    XC-Potential eval.      ....       0.001 sec  (  5.2% of XC)
Diagonalization             ....       0.001 sec  (  0.0%)
Density matrix formation    ....       0.000 sec  (  0.0%)
Population analysis         ....       0.001 sec  (  0.0%)
Initial guess               ....       0.071 sec  (  2.9%)
Orbital Transformation      ....       0.000 sec  (  0.0%)
Orbital Orthonormalization  ....       0.000 sec  (  0.0%)
DIIS solution               ....       0.000 sec  (  0.0%)
SOSCF solution              ....       0.001 sec  (  0.0%)
Grid generation             ....       0.650 sec  ( 26.1%)

-------------------------   --------------------
FINAL SINGLE POINT ENERGY     -1270.877949496989
-------------------------   --------------------


                            ***************************************
                            *     ORCA property calculations      *
                            ***************************************

                                    ---------------------
                                    Active property flags
                                    ---------------------
   (+) Dipole Moment


------------------------------------------------------------------------------
                       ORCA ELECTRIC PROPERTIES CALCULATION
------------------------------------------------------------------------------

Dipole Moment Calculation                       ... on
Quadrupole Moment Calculation                   ... off
Polarizability Calculation                      ... off
GBWName                                         ... Kr_cc-pcvdz_2192.575824_.gbw
Electron density file                           ... Kr_cc-pcvdz_2192.575824_.scfp
The origin for moment calculation is the CENTER OF MASS  = ( 0.000000,  0.000000  0.000000)

-------------
DIPOLE MOMENT
-------------
                                X             Y             Z
Electronic contribution:     -0.00000       0.00000       0.00000
Nuclear contribution   :      0.00000       0.00000       0.00000
                        -----------------------------------------
Total Dipole Moment    :     -0.00000       0.00000       0.00000
                        -----------------------------------------
Magnitude (a.u.)       :      0.00000
Magnitude (Debye)      :      0.00000



--------------------
Rotational spectrum 
--------------------
 
Rotational constants in cm-1:     0.000000     0.000000     0.000000 
Rotational constants in MHz :     0.000000     0.000000     0.000000 

 Dipole components along the rotational axes: 
x,y,z [a.u.] :    -0.000000     0.000000     0.000000 
x,y,z [Debye]:    -0.000000     0.000000     0.000000 

 

Timings for individual modules:

Sum of individual times         ...        3.965 sec (=   0.066 min)
GTO integral calculation        ...        0.749 sec (=   0.012 min)  18.9 %
Relativistic integrals          ...        0.476 sec (=   0.008 min)  12.0 %
SCF iterations                  ...        2.740 sec (=   0.046 min)  69.1 %
                             ****ORCA TERMINATED NORMALLY****
TOTAL RUN TIME: 0 days 0 hours 0 minutes 4 seconds 275 msec
