
                                 *****************
                                 * O   R   C   A *
                                 *****************

           --- An Ab Initio, DFT and Semiempirical electronic structure package ---

                  #######################################################
                  #                        -***-                        #
                  #          Department of theory and spectroscopy      #
                  #               Directorship: Frank Neese             #
                  #        Max Planck Institute fuer Kohlenforschung    #
                  #                Kaiser Wilhelm Platz 1               #
                  #                 D-45470 Muelheim/Ruhr               #
                  #                      Germany                        #
                  #                                                     #
                  #                  All rights reserved                #
                  #                        -***-                        #
                  #######################################################


                         Program Version 4.2.1 -  RELEASE  -


 With contributions from (in alphabetic order):
   Daniel Aravena         : Magnetic Suceptibility
   Michael Atanasov       : Ab Initio Ligand Field Theory (pilot matlab implementation)
   Alexander A. Auer      : GIAO ZORA, VPT2
   Ute Becker             : Parallelization
   Giovanni Bistoni       : ED, misc. LED, open-shell LED, HFLD
   Martin Brehm           : Molecular dynamics
   Dmytro Bykov           : SCF Hessian
   Vijay G. Chilkuri      : MRCI spin determinant printing, contributions to CSF-ICE
   Dipayan Datta          : RHF DLPNO-CCSD density
   Achintya Kumar Dutta   : EOM-CC, STEOM-CC
   Dmitry Ganyushin       : Spin-Orbit,Spin-Spin,Magnetic field MRCI
   Miquel Garcia          : C-PCM Hessian, Gaussian charge scheme
   Yang Guo               : DLPNO-NEVPT2, CIM, IAO-localization
   Andreas Hansen         : Spin unrestricted coupled pair/coupled cluster methods
   Benjamin Helmich-Paris : CASSCF linear response (MC-RPA)
   Lee Huntington         : MR-EOM, pCC
   Robert Izsak           : Overlap fitted RIJCOSX, COSX-SCS-MP3, EOM
   Christian Kollmar      : KDIIS, OOCD, Brueckner-CCSD(T), CCSD density
   Simone Kossmann        : Meta GGA functionals, TD-DFT gradient, OOMP2, MP2 Hessian
   Martin Krupicka        : AUTO-CI
   Lucas Lang             : DCDCAS
   Dagmar Lenk            : GEPOL surface, SMD
   Dimitrios Liakos       : Extrapolation schemes; Compound Job, initial MDCI parallelization
   Dimitrios Manganas     : Further ROCIS development; embedding schemes
   Dimitrios Pantazis     : SARC Basis sets
   Taras Petrenko         : DFT Hessian,TD-DFT gradient, ASA, ECA, R-Raman, ABS, FL, XAS/XES, NRVS
   Peter Pinski           : DLPNO-MP2, DLPNO-MP2 Gradient
   Christoph Reimann      : Effective Core Potentials
   Marius Retegan         : Local ZFS, SOC
   Christoph Riplinger    : Optimizer, TS searches, QM/MM, DLPNO-CCSD(T), (RO)-DLPNO pert. Triples
   Tobias Risthaus        : Range-separated hybrids, TD-DFT gradient, RPA, STAB
   Michael Roemelt        : Original ROCIS implementation
   Masaaki Saitow         : Open-shell DLPNO-CCSD energy and density
   Barbara Sandhoefer     : DKH picture change effects
   Avijit Sen             : IP-ROCIS
   Kantharuban Sivalingam : CASSCF convergence, NEVPT2, FIC-MRCI
   Bernardo de Souza      : ESD, SOC TD-DFT
   Georgi Stoychev        : AutoAux, RI-MP2 NMR
   Willem Van den Heuvel  : Paramagnetic NMR
   Boris Wezisla          : Elementary symmetry handling
   Frank Wennmohs         : Technical directorship


 We gratefully acknowledge several colleagues who have allowed us to
 interface, adapt or use parts of their codes:
   Stefan Grimme, W. Hujo, H. Kruse,             : VdW corrections, initial TS optimization,
                  C. Bannwarth                     DFT functionals, gCP, sTDA/sTD-DF
   Ed Valeev, F. Pavosevic, A. Kumar             : LibInt (2-el integral package), F12 methods
   Garnet Chan, S. Sharma, J. Yang, R. Olivares  : DMRG
   Ulf Ekstrom                                   : XCFun DFT Library
   Mihaly Kallay                                 : mrcc  (arbitrary order and MRCC methods)
   Andreas Klamt, Michael Diedenhofen            : otool_cosmo (COSMO solvation model)
   Jiri Pittner, Ondrej Demel                    : Mk-CCSD
   Frank Weinhold                                : gennbo (NPA and NBO analysis)
   Christopher J. Cramer and Donald G. Truhlar   : smd solvation model
   Lars Goerigk                                  : TD-DFT with DH, B97 family of functionals
   V. Asgeirsson, H. Jonsson                     : NEB implementation
   FAccTs GmbH                                   : IRC, NEB, NEB-TS, Multilevel, MM, QM/MM, CI optimization
   S Lehtola, MJT Oliveira, MAL Marques          : LibXC Library


 Your calculation uses the libint2 library for the computation of 2-el integrals
 For citations please refer to: http://libint.valeyev.net

 Your ORCA version has been built with support for libXC version: 4.2.3
 For citations please refer to: https://tddft.org/programs/libxc/

 This ORCA versions uses:
   CBLAS   interface :  Fast vector & matrix operations
   LAPACKE interface :  Fast linear algebra routines
   SCALAPACK package :  Parallel linear algebra routines


----- Orbital basis set information -----
Your calculation utilizes the basis: cc-pCVQZ 
             H : cc-pVQZ. Obtained from the ccRepo (grant-hill.group.shef.ac.uk/ccrepo) Feb. 2017
                 T. H. Dunning, Jr., J. Chem. Phys. 90, 1007 (1989)
            He : cc-pVQZ. Obtained from the ccRepo (grant-hill.group.shef.ac.uk/ccrepo) Feb. 2017
                 D. E. Woon, T. H. Dunning, Jr., J. Chem. Phys. 100, 2975 (1994)
  Li-Be, Na-Mg : Obtained from the ccRepo (grant-hill.group.shef.ac.uk/ccrepo) Feb. 2017
                 B. P. Prascher, D. E. Woon, K. A. Peterson, T. H. Dunning, Jr., A. K. Wilson, Theor. Chem. Acc. 128, 69 (2011)
          B-Ne : Obtained from the ccRepo (grant-hill.group.shef.ac.uk/ccrepo) Feb. 2017
                 D. E. Woon, T. H. Dunning, Jr., J. Chem. Phys. 103, 4572 (1995)
                  K. A. Peterson, T. H. Dunning, Jr., J. Chem. Phys. 117, 10548 (2002)
         Al-Ar : Obtained from the EMSL Basis Set Exchange (bse.pnl.gov) Feb. 2017
                 K. A. Peterson, T. H. Dunning, Jr., J. Chem. Phys. 117, 10548 (2002)
            Ca : Obtained from the Peterson Research Group Website (tyr0.chem.wsu.edu/~kipeters) Feb. 2017
                 J. Koput, K. A. Peterson, J. Phys. Chem. A 106, 9595 (2002)
         Ga-Kr : Obtained from the Peterson Research Group Website (tyr0.chem.wsu.edu/~kipeters) Feb. 2017
                 N. J. DeYonker, K. A. Peterson, A. K. Wilson, J. Phys. Chem. A 111, 11383 (2007)

================================================================================
                                        WARNINGS
                       Please study these warnings very carefully!
================================================================================


INFO   : the flag for use of LIBINT has been found!

================================================================================
                                       INPUT FILE
================================================================================
NAME = Kr_cc-pcvqz_274.071978_.inp
|  1> ! LDA cc-pcvqz nori grid5 finalgrid6 verytightscf
|  2> %Pal NProcs 18 End
|  3> 
|  4> % REL
|  5>   Method ZORA
|  6>   ModelPot 1, 0, 0, 0
|  7>   velit 274.071978
|  8> END
|  9> 
| 10> *xyz 34 1
| 11> Kr 0.0 0.0 0.0
| 12> **                         ****END OF INPUT****
================================================================================

                       ****************************
                       * Single Point Calculation *
                       ****************************

---------------------------------
CARTESIAN COORDINATES (ANGSTROEM)
---------------------------------
  Kr     0.000000    0.000000    0.000000

----------------------------
CARTESIAN COORDINATES (A.U.)
----------------------------
  NO LB      ZA    FRAG     MASS         X           Y           Z
   0 Kr   36.0000    0    83.800    0.000000    0.000000    0.000000

--------------------------------
INTERNAL COORDINATES (ANGSTROEM)
--------------------------------
 Kr     0   0   0     0.000000000000     0.00000000     0.00000000

---------------------------
INTERNAL COORDINATES (A.U.)
---------------------------
 Kr     0   0   0     0.000000000000     0.00000000     0.00000000

---------------------
BASIS SET INFORMATION
---------------------
There are 1 groups of distinct atoms

 Group   1 Type Kr  : 78s45p15d5f3g1h contracted to 10s9p7d5f3g1h pattern {18181818111111/131313111111/9111111/11111/111/1}

Atom   0Kr   basis set group =>   1


           ************************************************************
           *        Program running with 18 parallel MPI-processes    *
           *              working on a common directory               *
           ************************************************************
------------------------------------------------------------------------------
                           ORCA GTO INTEGRAL CALCULATION
------------------------------------------------------------------------------

                         BASIS SET STATISTICS AND STARTUP INFO

 # of primitive gaussian shells          ...  147
 # of primitive gaussian functions       ...  361
 # of contracted shells                  ...   35
 # of contracted basis functions         ...  145
 Highest angular momentum                ...    5
 Maximum contraction depth               ...   18
 Integral package used                   ... LIBINT
 Integral threshhold            Thresh   ...  1.000e-12
 Primitive cut-off              TCut     ...  1.000e-14


------------------------------ INTEGRAL EVALUATION ----------------------------


 * One electron integrals 
 Pre-screening matrix                    ... done
 Shell pair data                         ... done (   0.000 sec)



           ************************************************************
           *        Program running with 18 parallel MPI-processes    *
           *              working on a common directory               *
           ************************************************************
------------------------------------------------------------------------------
                          ORCA RELATIVISTIC HAMILTONIAN
------------------------------------------------------------------------------

Relativistic Method            ... ZORA(MP)
Treatment of potential         ... Van Wuellen
Nucleus model                  ... Point Nucleus
Speed of light used            ... 274.07197800000000


            *************************************************
            *         ZERO ORDER REGULAR APPROXIMATION      *
            *                     ZORA(MP)                  *
            *            Programmed by FN according to      *
            *                   C. van Wuellen              *
            *       J. Chem. Phys. (1998) vol 109, 392-399  *
            *************************************************

Terms included in model potential: +V(e,N)
Basis function cutoff value   ... 1.000000e-12
Loading the fitted atomic densities  (DKH4)  ... done
Calculating the cutoffs                      ... done
Number of fit functions                      ... 27
Setting up the integration grid ... done


           ************************************************************
           *        Program running with 18 parallel MPI-processes    *
           *              working on a common directory               *
           ************************************************************
-------------------------------------------------------------------------------
                                 ORCA SCF
-------------------------------------------------------------------------------

------------
SCF SETTINGS
------------
Hamiltonian:
 Density Functional     Method          .... DFT(GTOs)
 Exchange Functional    Exchange        .... Slater
   X-Alpha parameter    XAlpha          ....  0.666667
 Correlation Functional Correlation     .... VWN-5
 Gradients option       PostSCFGGA      .... off
   Density functional embedding theory  .... OFF

Relativistic Settings:
 Scalar relativistic method             .... ZORA
 Speed of light used       Velit        ....       274.071978
Orbital energies will be scaled


General Settings:
 Integral files         IntName         .... Kr_cc-pcvqz_274.071978_
 Hartree-Fock type      HFTyp           .... RHF
 Total Charge           Charge          ....   34
 Multiplicity           Mult            ....    1
 Number of Electrons    NEL             ....    2
 Basis Dimension        Dim             ....  145
 Nuclear Repulsion      ENuc            ....      0.0000000000 Eh

Convergence Acceleration:
 DIIS                   CNVDIIS         .... on
   Start iteration      DIISMaxIt       ....    12
   Startup error        DIISStart       ....  0.200000
   # of expansion vecs  DIISMaxEq       ....     5
   Bias factor          DIISBfac        ....   1.050
   Max. coefficient     DIISMaxC        ....  10.000
 Newton-Raphson         CNVNR           .... off
 SOSCF                  CNVSOSCF        .... on
   Start iteration      SOSCFMaxIt      ....   150
   Startup grad/error   SOSCFStart      ....  0.003300
 Level Shifting         CNVShift        .... on
   Level shift para.    LevelShift      ....    0.2500
   Turn off err/grad.   ShiftErr        ....    0.0010
 Zerner damping         CNVZerner       .... off
 Static damping         CNVDamp         .... on
   Fraction old density DampFac         ....    0.7000
   Max. Damping (<1)    DampMax         ....    0.9800
   Min. Damping (>=0)   DampMin         ....    0.0000
   Turn off err/grad.   DampErr         ....    0.1000
 Fernandez-Rico         CNVRico         .... off

SCF Procedure:
 Maximum # iterations   MaxIter         ....   125
 SCF integral mode      SCFMode         .... Direct
   Integral package                     .... LIBINT
 Reset frequency        DirectResetFreq ....    20
 Integral Threshold     Thresh          ....  1.000e-12 Eh
 Primitive CutOff       TCut            ....  1.000e-14 Eh

Convergence Tolerance:
 Convergence Check Mode ConvCheckMode   .... Total+1el-Energy
 Convergence forced     ConvForced      .... 0
 Energy Change          TolE            ....  1.000e-09 Eh
 1-El. energy change                    ....  1.000e-06 Eh
 Orbital Gradient       TolG            ....  2.000e-06
 Orbital Rotation angle TolX            ....  2.000e-06
 DIIS Error             TolErr          ....  1.000e-08


Diagonalization of the overlap matrix:
Smallest eigenvalue                        ... 3.416e-06
Time for diagonalization                   ...    0.005 sec
Threshold for overlap eigenvalues          ... 1.000e-08
Number of eigenvalues below threshold      ... 0
Time for construction of square roots      ...    0.003 sec
Total time needed                          ...    0.008 sec

-------------------
DFT GRID GENERATION
-------------------

General Integration Accuracy     IntAcc      ...  5.010
Radial Grid Type                 RadialGrid  ... Gauss-Chebyshev
Angular Grid (max. acc.)         AngularGrid ... Lebedev-434
Angular grid pruning method      GridPruning ... 3 (G Style)
Weight generation scheme         WeightScheme... Becke
Basis function cutoff            BFCut       ...    1.0000e-12
Integration weight cutoff        WCut        ...    1.0000e-14
Grids for H and He will be reduced by one unit

# of grid points (after initial pruning)     ...  16106 (   0.0 sec)
# of grid points (after weights+screening)   ...  16106 (   0.0 sec)
Grid point division into batches done        ...    0.2 sec
Reduced shell lists constructed in    0.2 sec

Total number of grid points                  ...    16106
Total number of batches                      ...      252
Average number of points per batch           ...       63
Average number of grid points per atom       ...    16106
Average number of shells per batch           ...     1.47 ( 4.19%)
Average number of basis functions per batch  ...     3.33 ( 2.30%)
Average number of large shells per batch     ...     0.93 (63.64%)
Average number of large basis fcns per batch ...     2.80 (84.00%)
Maximum spatial batch extension              ...  17.34, 17.34, 17.34 au
Average spatial batch extension              ...   0.86,  0.87,  0.87 au

Time for grid setup =    0.232 sec

------------------------------
INITIAL GUESS: MODEL POTENTIAL
------------------------------
Loading ZORA relativistic densities                ... done
Calculating cut-offs                               ... done
Setting up the integral package                    ... done
Initializing the effective Hamiltonian             ... done
Starting the Coulomb interaction                   ... done (   0.0 sec)
Reading the grid                                   ... done
Mapping shells                                     ... done
Starting the XC term evaluation                    ... done (   0.0 sec)
  promolecular density results
     # of electrons  =     36.000000565
     EX              =    -91.042004939
     EC              =     -3.295965580
     EX+EC           =    -94.337970520
Transforming the Hamiltonian                       ... done (   0.0 sec)
Diagonalizing the Hamiltonian                      ... done (   0.0 sec)
Back transforming the eigenvectors                 ... done (   0.0 sec)
Now organizing SCF variables                       ... done
                      ------------------
                      INITIAL GUESS DONE (   0.3 sec)
                      ------------------
--------------
SCF ITERATIONS
--------------
ITER       Energy         Delta-E        Max-DP      RMS-DP      [F,P]     Damp
               ***  Starting incremental Fock matrix formation  ***
  0  -1281.6160745550   0.000000000000 3.43725538  0.03864561  5.9917420 0.7000
  1  -1281.6376070527  -0.021532497728 2.38488825  0.02681376  4.1807209 0.7000
  2  -1281.6525998300  -0.014992777243 1.65389314  0.01859515  2.9164969 0.7000
  3  -1281.6630560508  -0.010456220788 1.14691888  0.01289519  2.0346157 0.7000
  4  -1281.6703566513  -0.007300600561 0.79532217  0.00894213  1.4194224 0.7000
  5  -1281.6754579872  -0.005101335881 0.55149041  0.00620067  0.9902567 0.7000
                      *** Initiating the SOSCF procedure ***
                      *** Re-Reading the Fockian *** 
                      *** Removing any level shift *** 
ITER      Energy       Delta-E        Grad      Rot      Max-DP    RMS-DP
  6  -1281.67902452  -0.0035665339  0.002976  0.002976  1.274664  0.014332
               *** Restarting incremental Fock matrix formation ***
  7  -1281.68733252  -0.0083079983  0.006908  0.000006  0.028185  0.000317
  8  -1281.68733264  -0.0000001222  0.000086  0.000000  0.000349  0.000004
                 **** Energy Check signals convergence ****
              ***Rediagonalizing the Fockian in SOSCF/NRSCF***

               *****************************************************
               *                     SUCCESS                       *
               *           SCF CONVERGED AFTER   9 CYCLES          *
               *****************************************************

Setting up the final grid:

General Integration Accuracy     IntAcc      ...  5.340
Radial Grid Type                 RadialGrid  ... Gauss-Chebyshev
Angular Grid (max. acc.)         AngularGrid ... Lebedev-590
Angular grid pruning method      GridPruning ... 3 (G Style)
Weight generation scheme         WeightScheme... Becke
Basis function cutoff            BFCut       ...    1.0000e-12
Integration weight cutoff        WCut        ...    1.0000e-14
Grids for H and He will be reduced by one unit

# of grid points (after initial pruning)     ...  24180 (   0.0 sec)
# of grid points (after weights+screening)   ...  24180 (   0.0 sec)
Grid point division into batches done        ...    0.4 sec
Reduced shell lists constructed in    0.4 sec

Total number of grid points                  ...    24180
Total number of batches                      ...      378
Average number of points per batch           ...       63
Average number of grid points per atom       ...    24180
Average number of shells per batch           ...     1.23 ( 3.51%)
Average number of basis functions per batch  ...     3.68 ( 2.54%)
Average number of large shells per batch     ...     0.95 (77.78%)
Average number of large basis fcns per batch ...     2.86 (77.78%)
Maximum spatial batch extension              ...  17.58, 17.58, 17.58 au
Average spatial batch extension              ...   0.77,  0.77,  0.77 au

Final grid set up in    0.5 sec
Final integration                            ... done (   0.0 sec)
Change in XC energy                          ...     0.000069983
Integrated number of electrons               ...     2.000000290
Previous integrated no of electrons          ...     2.000001739

----------------
TOTAL SCF ENERGY
----------------

Total Energy       :        -1281.68726266 Eh          -34876.48350 eV

Components:
Nuclear Repulsion  :            0.00000000 Eh               0.00000 eV
Electronic Energy  :        -1281.68726266 Eh          -34876.48350 eV
One Electron Energy:        -1307.07799830 Eh          -35567.40055 eV
Two Electron Energy:           25.39073564 Eh             690.91704 eV

Virial components:
Potential Energy   :        -2572.38134139 Eh          -69998.05493 eV
Kinetic Energy     :         1290.69407873 Eh           35121.57143 eV
Virial Ratio       :            1.99302173


DFT components:
N(Alpha)           :        1.000000145221 electrons
N(Beta)            :        1.000000145221 electrons
N(Total)           :        2.000000290442 electrons
E(X)               :      -19.291280186575 Eh       
E(C)               :       -0.278545748527 Eh       
E(XC)              :      -19.569825935102 Eh       
DFET-embed. en.    :        0.000000000000 Eh       

---------------
SCF CONVERGENCE
---------------

  Last Energy change         ...   -2.0691e-11  Tolerance :   1.0000e-09
  Last MAX-Density change    ...    0.0000e+00  Tolerance :   1.0000e-08
  Last RMS-Density change    ...    0.0000e+00  Tolerance :   1.0000e-09
  Last Orbital Gradient      ...    5.1120e-10  Tolerance :   2.0000e-06
  Last Orbital Rotation      ...    0.0000e+00  Tolerance :   2.0000e-06

================================================================================
                                        WARNING
Number of found core electrons (2) does not match given number of chemical core electrons (18)
================================================================================
             **** THE GBW FILE WAS UPDATED (Kr_cc-pcvqz_274.071978_.gbw) ****
             **** DENSITY FILE WAS UPDATED (Kr_cc-pcvqz_274.071978_.scfp) ****
             **** ENERGY FILE WAS UPDATED (Kr_cc-pcvqz_274.071978_.en.tmp) ****
             **** THE GBW FILE WAS UPDATED (Kr_cc-pcvqz_274.071978_.gbw) ****
             **** DENSITY FILE WAS UPDATED (Kr_cc-pcvqz_274.071978_.scfp) ****
----------------
ORBITAL ENERGIES
----------------

  NO   OCC          E(Eh)            E(eV) 
   0   2.0000    -621.588450    -16914.2816 
   1   0.0000    -149.915011     -4079.3948 
   2   0.0000    -147.694353     -4018.9677 
   3   0.0000    -147.694353     -4018.9677 
   4   0.0000    -147.694353     -4018.9677 
   5   0.0000     -65.752765     -1789.2237 
   6   0.0000     -64.983557     -1768.2925 
   7   0.0000     -64.983557     -1768.2925 
   8   0.0000     -64.983557     -1768.2925 
   9   0.0000     -64.533661     -1756.0502 
  10   0.0000     -64.533661     -1756.0502 
  11   0.0000     -64.533661     -1756.0502 
  12   0.0000     -64.533661     -1756.0502 
  13   0.0000     -64.533661     -1756.0502 
  14   0.0000     -36.744555      -999.8702 
  15   0.0000     -36.408932      -990.7374 
  16   0.0000     -36.408932      -990.7374 
  17   0.0000     -36.408932      -990.7374 
  18   0.0000     -36.278475      -987.1875 
  19   0.0000     -36.278475      -987.1875 
  20   0.0000     -36.278475      -987.1875 
  21   0.0000     -36.278475      -987.1875 
  22   0.0000     -36.278475      -987.1875 
  23   0.0000     -36.096144      -982.2260 
  24   0.0000     -36.096144      -982.2260 
  25   0.0000     -36.096144      -982.2260 
  26   0.0000     -36.096144      -982.2260 
  27   0.0000     -36.096144      -982.2260 
  28   0.0000     -36.096144      -982.2260 
  29   0.0000     -36.096144      -982.2260 
  30   0.0000     -23.231206      -632.1532 
  31   0.0000     -23.160770      -630.2366 
  32   0.0000     -23.160770      -630.2366 
  33   0.0000     -23.160770      -630.2366 
  34   0.0000     -23.127364      -629.3276 
  35   0.0000     -23.127364      -629.3276 
  36   0.0000     -23.127364      -629.3276 
  37   0.0000     -23.127364      -629.3276 
  38   0.0000     -23.127364      -629.3276 
  39   0.0000     -22.667525      -616.8147 
  40   0.0000     -22.667525      -616.8147 
  41   0.0000     -22.667525      -616.8147 
  42   0.0000     -22.667525      -616.8147 
  43   0.0000     -22.667525      -616.8147 
  44   0.0000     -22.667525      -616.8147 
  45   0.0000     -22.667525      -616.8147 
  46   0.0000     -22.327909      -607.5733 
  47   0.0000     -22.327909      -607.5733 
  48   0.0000     -22.327909      -607.5733 
  49   0.0000     -22.327909      -607.5733 
  50   0.0000     -22.327909      -607.5733 
  51   0.0000     -22.327909      -607.5733 
  52   0.0000     -22.327909      -607.5733 
  53   0.0000     -22.327909      -607.5733 
  54   0.0000     -22.327909      -607.5733 
  55   0.0000     -16.026026      -436.0903 
  56   0.0000     -16.026026      -436.0903 
  57   0.0000     -16.026026      -436.0903 
  58   0.0000     -16.026026      -436.0903 
  59   0.0000     -16.026026      -436.0903 
  60   0.0000     -16.026026      -436.0903 
  61   0.0000     -16.026026      -436.0903 
  62   0.0000     -15.859283      -431.5530 
  63   0.0000     -15.859283      -431.5530 
  64   0.0000     -15.859283      -431.5530 
  65   0.0000     -15.859283      -431.5530 
  66   0.0000     -15.859283      -431.5530 
  67   0.0000     -15.647248      -425.7833 
  68   0.0000     -15.606893      -424.6852 
  69   0.0000     -15.606893      -424.6852 
  70   0.0000     -15.606893      -424.6852 
  71   0.0000     -14.583179      -396.8285 
  72   0.0000     -14.583179      -396.8285 
  73   0.0000     -14.583179      -396.8285 
  74   0.0000     -14.583179      -396.8285 
  75   0.0000     -14.583179      -396.8285 
  76   0.0000     -14.583179      -396.8285 
  77   0.0000     -14.583179      -396.8285 
  78   0.0000     -14.583179      -396.8285 
  79   0.0000     -14.583179      -396.8285 
  80   0.0000     -11.715698      -318.8004 
  81   0.0000     -11.715698      -318.8004 
  82   0.0000     -11.715698      -318.8004 
  83   0.0000     -11.715698      -318.8004 
  84   0.0000     -11.715698      -318.8004 
  85   0.0000     -11.364758      -309.2508 
  86   0.0000     -11.290137      -307.2203 
  87   0.0000     -11.290137      -307.2203 
  88   0.0000     -11.290137      -307.2203 
  89   0.0000     -11.290137      -307.2203 
  90   0.0000     -11.290137      -307.2203 
  91   0.0000     -11.290137      -307.2203 
  92   0.0000     -11.290137      -307.2203 
  93   0.0000     -10.674014      -290.4547 
  94   0.0000     -10.674014      -290.4547 
  95   0.0000     -10.674014      -290.4547 
  96   0.0000      -8.753924      -238.2064 
  97   0.0000      -8.753924      -238.2064 
  98   0.0000      -8.753924      -238.2064 
  99   0.0000      -8.753924      -238.2064 
 100   0.0000      -8.753924      -238.2064 
 101   0.0000      -8.577404      -233.4030 
 102   0.0000      -7.210028      -196.1948 
 103   0.0000      -7.210028      -196.1948 
 104   0.0000      -7.210028      -196.1948 
 105   0.0000      -5.825240      -158.5129 
 106   0.0000      -5.825240      -158.5129 
 107   0.0000      -5.825240      -158.5129 
 108   0.0000       1.721838        46.8536 
 109   0.0000       1.721838        46.8536 
 110   0.0000       1.721838        46.8536 
 111   0.0000       1.721838        46.8536 
 112   0.0000       1.721838        46.8536 
 113   0.0000       1.721838        46.8536 
 114   0.0000       1.721838        46.8536 
 115   0.0000       1.721838        46.8536 
 116   0.0000       1.721838        46.8536 
 117   0.0000       2.589020        70.4508 
 118   0.0000       2.589020        70.4508 
 119   0.0000       2.589020        70.4508 
 120   0.0000       2.589020        70.4508 
 121   0.0000       2.589020        70.4508 
 122   0.0000       2.589020        70.4508 
 123   0.0000       2.589020        70.4508 
 124   0.0000       2.589020        70.4508 
 125   0.0000       2.589020        70.4508 
 126   0.0000       2.589020        70.4508 
 127   0.0000       2.589020        70.4508 
 128   0.0000      10.192410       277.3496 
 129   0.0000      10.192410       277.3496 
 130   0.0000      10.192410       277.3496 
 131   0.0000      10.192410       277.3496 
 132   0.0000      10.192410       277.3496 
 133   0.0000      10.192410       277.3496 
 134   0.0000      10.192410       277.3496 
 135   0.0000      21.323719       580.2479 
 136   0.0000      21.323719       580.2479 
 137   0.0000      21.323719       580.2479 
 138   0.0000      21.323719       580.2479 
 139   0.0000      21.323719       580.2479 
 140   0.0000      28.413927       773.1823 
 141   0.0000     119.629716      3255.2901 
 142   0.0000     119.629716      3255.2901 
 143   0.0000     119.629716      3255.2901 
 144   0.0000    1150.607435     31309.6200 

                    ********************************
                    * MULLIKEN POPULATION ANALYSIS *
                    ********************************

-----------------------
MULLIKEN ATOMIC CHARGES
-----------------------
   0 Kr:   34.000000
Sum of atomic charges:   34.0000000

--------------------------------
MULLIKEN REDUCED ORBITAL CHARGES
--------------------------------
  0 Krs       :     2.000000  s :     2.000000
      pz      :     0.000000  p :     0.000000
      px      :     0.000000
      py      :     0.000000
      dz2     :     0.000000  d :     0.000000
      dxz     :     0.000000
      dyz     :     0.000000
      dx2y2   :     0.000000
      dxy     :     0.000000
      f0      :     0.000000  f :     0.000000
      f+1     :     0.000000
      f-1     :     0.000000
      f+2     :     0.000000
      f-2     :     0.000000
      f+3     :     0.000000
      f-3     :     0.000000
      g0      :     0.000000  g :     0.000000
      g+1     :     0.000000
      g-1     :     0.000000
      g+2     :     0.000000
      g-2     :     0.000000
      g+3     :     0.000000
      g-3     :     0.000000
      g+4     :     0.000000
      g-4     :     0.000000
      h0      :     0.000000  h :     0.000000
      h+1     :     0.000000
      h-1     :     0.000000
      h+2     :     0.000000
      h-2     :     0.000000
      h+3     :     0.000000
      h-3     :     0.000000
      h+4     :     0.000000
      h-4     :     0.000000
      h+5     :     0.000000
      h-5     :     0.000000


                     *******************************
                     * LOEWDIN POPULATION ANALYSIS *
                     *******************************

----------------------
LOEWDIN ATOMIC CHARGES
----------------------
   0 Kr:   34.000000

-------------------------------
LOEWDIN REDUCED ORBITAL CHARGES
-------------------------------
  0 Krs       :     2.000000  s :     2.000000
      pz      :     0.000000  p :     0.000000
      px      :     0.000000
      py      :     0.000000
      dz2     :     0.000000  d :     0.000000
      dxz     :     0.000000
      dyz     :     0.000000
      dx2y2   :     0.000000
      dxy     :     0.000000
      f0      :     0.000000  f :     0.000000
      f+1     :     0.000000
      f-1     :     0.000000
      f+2     :     0.000000
      f-2     :     0.000000
      f+3     :     0.000000
      f-3     :     0.000000
      g0      :     0.000000  g :     0.000000
      g+1     :     0.000000
      g-1     :     0.000000
      g+2     :     0.000000
      g-2     :     0.000000
      g+3     :     0.000000
      g-3     :     0.000000
      g+4     :     0.000000
      g-4     :     0.000000
      h0      :     0.000000  h :     0.000000
      h+1     :     0.000000
      h-1     :     0.000000
      h+2     :     0.000000
      h-2     :     0.000000
      h+3     :     0.000000
      h-3     :     0.000000
      h+4     :     0.000000
      h-4     :     0.000000
      h+5     :     0.000000
      h-5     :     0.000000


                      *****************************
                      * MAYER POPULATION ANALYSIS *
                      *****************************

  NA   - Mulliken gross atomic population
  ZA   - Total nuclear charge
  QA   - Mulliken gross atomic charge
  VA   - Mayer's total valence
  BVA  - Mayer's bonded valence
  FA   - Mayer's free valence

  ATOM       NA         ZA         QA         VA         BVA        FA
  0 Kr     2.0000    36.0000    34.0000    -0.0000     0.0000    -0.0000

  Mayer bond orders larger than 0.100000


--------------------------
ATOM BASIS FOR ELEMENT Kr
--------------------------
 NewGTO Kr
 S 78
    1   18226110.000000000000         0.000003755567
    2    2728802.000000000000         0.000029575089
    3     620997.699999999953         0.000155856022
    4     175899.600000000006         0.000658045720
    5      57387.500000000000         0.002394291196
    6      20717.180000000000         0.007773436468
    7       8078.890000000000         0.022885015739
    8       3349.517000000000         0.060953318602
    9       1459.781000000000         0.143317827698
   10        662.893900000000         0.279749002139
   11        311.392200000000         0.399856488124
   12        149.937500000000         0.327773547311
   13         72.498250000000         0.098700051059
   14         35.569350000000         0.002938965744
   15         17.766630000000         0.001593064492
   16          8.712383000000        -0.000773529399
   17          4.144971000000         0.000316993310
   18          1.969649000000        -0.000168531060
   19   18226110.000000000000        -0.000001300413
   20    2728802.000000000000        -0.000010273265
   21     620997.699999999953        -0.000054357275
   22     175899.600000000006        -0.000229652983
   23      57387.500000000000        -0.000836685897
   24      20717.180000000000        -0.002730737823
   25       8078.890000000000        -0.008121470988
   26       3349.517000000000        -0.022211578797
   27       1459.781000000000        -0.055113464953
   28        662.893900000000        -0.120766649409
   29        311.392200000000        -0.215529194763
   30        149.937500000000        -0.254242237694
   31         72.498250000000        -0.002133848133
   32         35.569350000000         0.589096443716
   33         17.766630000000         0.698419586400
   34          8.712383000000         0.198829417606
   35          4.144971000000         0.007465802618
   36          1.969649000000         0.002264539666
   37   18226110.000000000000         0.000001427602
   38    2728802.000000000000         0.000011420813
   39     620997.699999999953         0.000059959267
   40     175899.600000000006         0.000253042383
   41      57387.500000000000         0.000921516832
   42      20717.180000000000         0.003009741070
   43       8078.890000000000         0.008963553536
   44       3349.517000000000         0.024597932440
   45       1459.781000000000         0.061465386817
   46        662.893900000000         0.136749600206
   47        311.392200000000         0.251771104085
   48        149.937500000000         0.314328249225
   49         72.498250000000         0.002258465729
   50         35.569350000000        -1.028253249742
   51         17.766630000000        -1.802274567144
   52          8.712383000000        -0.095568290699
   53          4.144971000000         2.533535290770
   54          1.969649000000         1.840899399088
   55   18226110.000000000000        -0.000000420519
   56    2728802.000000000000        -0.000004205194
   57     620997.699999999953        -0.000022287526
   58     175899.600000000006        -0.000095037376
   59      57387.500000000000        -0.000346087435
   60      20717.180000000000        -0.001128673968
   61       8078.890000000000        -0.003370042169
   62       3349.517000000000        -0.009224933251
   63       1459.781000000000        -0.023159683359
   64        662.893900000000        -0.051415220351
   65        311.392200000000        -0.095717355688
   66        149.937500000000        -0.119261814264
   67         72.498250000000        -0.003181228976
   68         35.569350000000         0.421093371227
   69         17.766630000000         0.763382254998
   70          8.712383000000         0.047042239502
   71          4.144971000000        -1.503711218035
   72          1.969649000000        -1.922742782828
   73          0.679952000000         0.025670566331
   74          0.324502000000        -0.013730129745
   75          0.137441000000         0.003431057909
   76          4.511300000000        -1.065378279354
   77          8.961300000000        -0.033168025084
   78         17.800900000000         0.318244180973
 S 78
    1   18226110.000000000000         0.000000537113
    2    2728802.000000000000         0.000004229763
    3     620997.699999999953         0.000022290178
    4     175899.600000000006         0.000094112220
    5      57387.500000000000         0.000342426148
    6      20717.180000000000         0.001111739419
    7       8078.890000000000         0.003272963535
    8       3349.517000000000         0.008717406682
    9       1459.781000000000         0.020496993723
   10        662.893900000000         0.040009073769
   11        311.392200000000         0.057186576568
   12        149.937500000000         0.046877436322
   13         72.498250000000         0.014115859551
   14         35.569350000000         0.000420324278
   15         17.766630000000         0.000227836504
   16          8.712383000000        -0.000110628437
   17          4.144971000000         0.000045335671
   18          1.969649000000        -0.000024102934
   19   18226110.000000000000        -0.000001211633
   20    2728802.000000000000        -0.000009571901
   21     620997.699999999953        -0.000050646260
   22     175899.600000000006        -0.000213974392
   23      57387.500000000000        -0.000779564689
   24      20717.180000000000        -0.002544308191
   25       8078.890000000000        -0.007567011736
   26       3349.517000000000        -0.020695176735
   27       1459.781000000000        -0.051350825086
   28        662.893900000000        -0.112521814684
   29        311.392200000000        -0.200814846075
   30        149.937500000000        -0.236884918929
   31         72.498250000000        -0.001988168632
   32         35.569350000000         0.548878363315
   33         17.766630000000         0.650737928535
   34          8.712383000000         0.185255175920
   35          4.144971000000         0.006956106365
   36          1.969649000000         0.002109937751
   37   18226110.000000000000         0.000002973203
   38    2728802.000000000000         0.000023785623
   39     620997.699999999953         0.000124874521
   40     175899.600000000006         0.000527000209
   41      57387.500000000000         0.001919202454
   42      20717.180000000000         0.006268254957
   43       8078.890000000000         0.018667997538
   44       3349.517000000000         0.051229028800
   45       1459.781000000000         0.128011249690
   46        662.893900000000         0.284802359889
   47        311.392200000000         0.524352572053
   48        149.937500000000         0.654637578641
   49         72.498250000000         0.004703606945
   50         35.569350000000        -2.141497683713
   51         17.766630000000        -3.753517736920
   52          8.712383000000        -0.199035863218
   53          4.144971000000         5.276482187778
   54          1.969649000000         3.833959970547
   55   18226110.000000000000        -0.000000880021
   56    2728802.000000000000        -0.000008800208
   57     620997.699999999953        -0.000046641100
   58     175899.600000000006        -0.000198884690
   59      57387.500000000000        -0.000724257079
   60      20717.180000000000        -0.002361975700
   61       8078.890000000000        -0.007052486312
   62       3349.517000000000        -0.019305015251
   63       1459.781000000000        -0.048466262932
   64        662.893900000000        -0.107596617345
   65        311.392200000000        -0.200307683658
   66        149.937500000000        -0.249579165579
   67         72.498250000000        -0.006657356994
   68         35.569350000000         0.881221980986
   69         17.766630000000         1.597529832966
   70          8.712383000000         0.098445281538
   71          4.144971000000        -3.146816048250
   72          1.969649000000        -4.023723287486
   73          0.679952000000         0.064378844794
   74          0.324502000000        -0.034896433284
   75          0.137441000000         0.008760645614
   76          4.511300000000        -2.136893252193
   77          8.961300000000         0.035081137826
   78         17.800900000000         1.075112701997
 S 78
    1   18226110.000000000000         0.000000541752
    2    2728802.000000000000         0.000004266298
    3     620997.699999999953         0.000022482711
    4     175899.600000000006         0.000094925123
    5      57387.500000000000         0.000345383883
    6      20717.180000000000         0.001121342165
    7       8078.890000000000         0.003301234041
    8       3349.517000000000         0.008792704038
    9       1459.781000000000         0.020674038285
   10        662.893900000000         0.040354655616
   11        311.392200000000         0.057680530585
   12        149.937500000000         0.047282344247
   13         72.498250000000         0.014237786513
   14         35.569350000000         0.000423954865
   15         17.766630000000         0.000229804462
   16          8.712383000000        -0.000111584000
   17          4.144971000000         0.000045727262
   18          1.969649000000        -0.000024311125
   19   18226110.000000000000        -0.000003092488
   20    2728802.000000000000        -0.000024430657
   21     620997.699999999953        -0.000129266008
   22     175899.600000000006        -0.000546133420
   23      57387.500000000000        -0.001989706922
   24      20717.180000000000        -0.006493916018
   25       8078.890000000000        -0.019313516695
   26       3349.517000000000        -0.052820935833
   27       1459.781000000000        -0.131064289596
   28        662.893900000000        -0.287192886986
   29        311.392200000000        -0.512545905487
   30        149.937500000000        -0.604608661370
   31         72.498250000000        -0.005074463924
   32         35.569350000000         1.400919121400
   33         17.766630000000         1.660898421278
   34          8.712383000000         0.472832480985
   35          4.144971000000         0.017754284133
   36          1.969649000000         0.005385258990
   37   18226110.000000000000         0.000005122333
   38    2728802.000000000000         0.000040978664
   39     620997.699999999953         0.000215137987
   40     175899.600000000006         0.000907933530
   41      57387.500000000000         0.003306465973
   42      20717.180000000000         0.010799158618
   43       8078.890000000000         0.032161848536
   44       3349.517000000000         0.088259078755
   45       1459.781000000000         0.220542048768
   46        662.893900000000         0.490667000720
   47        311.392200000000         0.903372092665
   48        149.937500000000         1.127831445621
   49         72.498250000000         0.008103530859
   50         35.569350000000        -3.689443605470
   51         17.766630000000        -6.466685496707
   52          8.712383000000        -0.342905620862
   53          4.144971000000         9.090499427167
   54          1.969649000000         6.605274058685
   55   18226110.000000000000        -0.000001519386
   56    2728802.000000000000        -0.000015193857
   57     620997.699999999953        -0.000080527442
   58     175899.600000000006        -0.000343381166
   59      57387.500000000000        -0.001250454423
   60      20717.180000000000        -0.004078031194
   61       8078.890000000000        -0.012176356925
   62       3349.517000000000        -0.033330763897
   63       1459.781000000000        -0.083678647530
   64        662.893900000000        -0.185769210859
   65        311.392200000000        -0.345838012760
   66        149.937500000000        -0.430906898196
   67         72.498250000000        -0.011494152750
   68         35.569350000000         1.521459652166
   69         17.766630000000         2.758189464667
   70          8.712383000000         0.169969119061
   71          4.144971000000        -5.433084686384
   72          1.969649000000        -6.947094790508
   73          0.679952000000         0.117452945922
   74          0.324502000000        -0.063295095090
   75          0.137441000000         0.015775293794
   76          4.511300000000        -3.073200560781
   77          8.961300000000         1.074133302677
   78         17.800900000000         1.329234189171
 S 78
    1   18226110.000000000000         0.000000447608
    2    2728802.000000000000         0.000003524917
    3     620997.699999999953         0.000018575751
    4     175899.600000000006         0.000078429394
    5      57387.500000000000         0.000285364378
    6      20717.180000000000         0.000926479563
    7       8078.890000000000         0.002727558071
    8       3349.517000000000         0.007264741173
    9       1459.781000000000         0.017081382074
   10        662.893900000000         0.033341976132
   11        311.392200000000         0.047657026053
   12        149.937500000000         0.039065797224
   13         72.498250000000         0.011763597802
   14         35.569350000000         0.000350281591
   15         17.766630000000         0.000189869911
   16          8.712383000000        -0.000092193354
   17          4.144971000000         0.000037780951
   18          1.969649000000        -0.000020086429
   19   18226110.000000000000        -0.000002941728
   20    2728802.000000000000        -0.000023239654
   21     620997.699999999953        -0.000122964245
   22     175899.600000000006        -0.000519509227
   23      57387.500000000000        -0.001892708021
   24      20717.180000000000        -0.006177335365
   25       8078.890000000000        -0.018371976071
   26       3349.517000000000        -0.050245896929
   27       1459.781000000000        -0.124674860114
   28        662.893900000000        -0.273192134340
   29        311.392200000000        -0.487559115189
   30        149.937500000000        -0.575133779857
   31         72.498250000000        -0.004827082051
   32         35.569350000000         1.332623829336
   33         17.766630000000         1.579929048359
   34          8.712383000000         0.449781733877
   35          4.144971000000         0.016888756637
   36          1.969649000000         0.005122725751
   37   18226110.000000000000         0.000005339078
   38    2728802.000000000000         0.000042712623
   39     620997.699999999953         0.000224241269
   40     175899.600000000006         0.000946351548
   41      57387.500000000000         0.003446374748
   42      20717.180000000000         0.011256110864
   43       8078.890000000000         0.033522735010
   44       3349.517000000000         0.091993646015
   45       1459.781000000000         0.229873996556
   46        662.893900000000         0.511428931868
   47        311.392200000000         0.941597098957
   48        149.937500000000         1.175554155294
   49         72.498250000000         0.008446421149
   50         35.569350000000        -3.845557576863
   51         17.766630000000        -6.740314819336
   52          8.712383000000        -0.357415222853
   53          4.144971000000         9.475151997929
   54          1.969649000000         6.884767574703
   55   18226110.000000000000        -0.000001912055
   56    2728802.000000000000        -0.000019120549
   57     620997.699999999953        -0.000101338908
   58     175899.600000000006        -0.000432124400
   59      57387.500000000000        -0.001573621154
   60      20717.180000000000        -0.005131955259
   61       8078.890000000000        -0.015323207693
   62       3349.517000000000        -0.041944747586
   63       1459.781000000000        -0.105304509666
   64        662.893900000000        -0.233779300194
   65        311.392200000000        -0.435216192336
   66        149.937500000000        -0.542270232205
   67         72.498250000000        -0.014464695058
   68         35.569350000000         1.914664820461
   69         17.766630000000         3.471014383224
   70          8.712383000000         0.213895841647
   71          4.144971000000        -6.837208006662
   72          1.969649000000        -8.742498022117
   73          0.679952000000         0.279791132221
   74          0.324502000000        -0.148254438933
   75          0.137441000000         0.036288717874
   76          4.511300000000        -2.759968453183
   77          8.961300000000         2.295367363711
   78         17.800900000000         0.812312522481
 S 78
    1   18226110.000000000000         0.000000241305
    2    2728802.000000000000         0.000001900278
    3     620997.699999999953         0.000010014164
    4     175899.600000000006         0.000042281190
    5      57387.500000000000         0.000153839585
    6      20717.180000000000         0.000499463993
    7       8078.890000000000         0.001470423201
    8       3349.517000000000         0.003916413032
    9       1459.781000000000         0.009208552068
   10        662.893900000000         0.017974618327
   11        311.392200000000         0.025691844134
   12        149.937500000000         0.021060323238
   13         72.498250000000         0.006341741107
   14         35.569350000000         0.000188836375
   15         17.766630000000         0.000102358636
   16          8.712383000000        -0.000049701324
   17          4.144971000000         0.000020367664
   18          1.969649000000        -0.000010828569
   19   18226110.000000000000        -0.000001658767
   20    2728802.000000000000        -0.000013104258
   21     620997.699999999953        -0.000069336455
   22     175899.600000000006        -0.000292938228
   23      57387.500000000000        -0.001067250600
   24      20717.180000000000        -0.003483244535
   25       8078.890000000000        -0.010359496688
   26       3349.517000000000        -0.028332401523
   27       1459.781000000000        -0.070301027795
   28        662.893900000000        -0.154046195135
   29        311.392200000000        -0.274922361069
   30        149.937500000000        -0.324303518820
   31         72.498250000000        -0.002721870545
   32         35.569350000000         0.751433166080
   33         17.766630000000         0.890882378700
   34          8.712383000000         0.253620642894
   35          4.144971000000         0.009523146436
   36          1.969649000000         0.002888576615
   37   18226110.000000000000         0.000003123287
   38    2728802.000000000000         0.000024986299
   39     620997.699999999953         0.000131178069
   40     175899.600000000006         0.000553602685
   41      57387.500000000000         0.002016081993
   42      20717.180000000000         0.006584670584
   43       8078.890000000000         0.019610340534
   44       3349.517000000000         0.053815022096
   45       1459.781000000000         0.134473137439
   46        662.893900000000         0.299178915735
   47        311.392200000000         0.550821397797
   48        149.937500000000         0.687683069247
   49         72.498250000000         0.004941040609
   50         35.569350000000        -2.249598477036
   51         17.766630000000        -3.942991789683
   52          8.712383000000        -0.209083006802
   53          4.144971000000         5.542834056750
   54          1.969649000000         4.027494671770
   55   18226110.000000000000        -0.000001115534
   56    2728802.000000000000        -0.000011155340
   57     620997.699999999953        -0.000059123304
   58     175899.600000000006        -0.000252110692
   59      57387.500000000000        -0.000918084510
   60      20717.180000000000        -0.002994093347
   61       8078.890000000000        -0.008939889748
   62       3349.517000000000        -0.024471470104
   63       1459.781000000000        -0.061436921388
   64        662.893900000000        -0.136391884200
   65        311.392200000000        -0.253914510214
   66        149.937500000000        -0.316372145243
   67         72.498250000000        -0.008439014967
   68         35.569350000000         1.117056737944
   69         17.766630000000         2.025064628987
   70          8.712383000000         0.124791445780
   71          4.144971000000        -3.988974566696
   72          1.969649000000        -5.100561841272
   73          0.679952000000         2.469121563018
   74          0.324502000000        -0.897493697905
   75          0.137441000000         0.196176652359
   76          4.511300000000        -4.355014078071
   77          8.961300000000         3.801522932083
   78         17.800900000000        -0.184924332801
 S 78
    1   18226110.000000000000         0.000000067513
    2    2728802.000000000000         0.000000531667
    3     620997.699999999953         0.000002801803
    4     175899.600000000006         0.000011829599
    5      57387.500000000000         0.000043041848
    6      20717.180000000000         0.000139742011
    7       8078.890000000000         0.000411400819
    8       3349.517000000000         0.001095749527
    9       1459.781000000000         0.002576405117
   10        662.893900000000         0.005029009804
   11        311.392200000000         0.007188165761
   12        149.937500000000         0.005892340527
   13         72.498250000000         0.001774317408
   14         35.569350000000         0.000052833388
   15         17.766630000000         0.000028638304
   16          8.712383000000        -0.000013905633
   17          4.144971000000         0.000005698546
   18          1.969649000000        -0.000003029660
   19   18226110.000000000000        -0.000000252917
   20    2728802.000000000000        -0.000001998042
   21     620997.699999999953        -0.000010571919
   22     175899.600000000006        -0.000044665093
   23      57387.500000000000        -0.000162726618
   24      20717.180000000000        -0.000531099821
   25       8078.890000000000        -0.001579540793
   26       3349.517000000000        -0.004319918749
   27       1459.781000000000        -0.010718989980
   28        662.893900000000        -0.023487844685
   29        311.392200000000        -0.041918164298
   30        149.937500000000        -0.049447444477
   31         72.498250000000        -0.000415011046
   32         35.569350000000         0.114573069985
   33         17.766630000000         0.135835272823
   34          8.712383000000         0.038670233069
   35          4.144971000000         0.001452020183
   36          1.969649000000         0.000440429177
   37   18226110.000000000000        -0.000000585466
   38    2728802.000000000000        -0.000004683727
   39     620997.699999999953        -0.000024589564
   40     175899.600000000006        -0.000103773815
   41      57387.500000000000        -0.000377918182
   42      20717.180000000000        -0.001234308299
   43       8078.890000000000        -0.003675993471
   44       3349.517000000000        -0.010087722318
   45       1459.781000000000        -0.025207230563
   46        662.893900000000        -0.056081623826
   47        311.392200000000        -0.103252457983
   48        149.937500000000        -0.128907423527
   49         72.498250000000        -0.000926206916
   50         35.569350000000         0.421691265370
   51         17.766630000000         0.739120876062
   52          8.712383000000         0.039192984262
   53          4.144971000000        -1.039014175634
   54          1.969649000000        -0.754961092722
   55   18226110.000000000000         0.000000793051
   56    2728802.000000000000         0.000007930510
   57     620997.699999999953         0.000042031703
   58     175899.600000000006         0.000179229528
   59      57387.500000000000         0.000652680981
   60      20717.180000000000         0.002128548909
   61       8078.890000000000         0.006355510788
   62       3349.517000000000         0.017397159988
   63       1459.781000000000         0.043676491280
   64        662.893900000000         0.096963174689
   65        311.392200000000         0.180511891558
   66        149.937500000000         0.224914024511
   67         72.498250000000         0.005999430884
   68         35.569350000000        -0.794133523813
   69         17.766630000000        -1.439650874606
   70          8.712383000000        -0.088716237245
   71          4.144971000000         2.835825899838
   72          1.969649000000         3.626071094553
   73          0.679952000000         1.232437389509
   74          0.324502000000        -2.488373377203
   75          0.137441000000         0.480690580541
   76          4.511300000000        -8.102558553424
   77          8.961300000000         5.617252828496
   78         17.800900000000        -1.074752648345
 S 78
    1   18226110.000000000000        -0.000000015012
    2    2728802.000000000000        -0.000000118222
    3     620997.699999999953        -0.000000623013
    4     175899.600000000006        -0.000002630447
    5      57387.500000000000        -0.000009570850
    6      20717.180000000000        -0.000031073243
    7       8078.890000000000        -0.000091479703
    8       3349.517000000000        -0.000243652507
    9       1459.781000000000        -0.000572893304
   10        662.893900000000        -0.001118258158
   11        311.392200000000        -0.001598371313
   12        149.937500000000        -0.001310229672
   13         72.498250000000        -0.000394539878
   14         35.569350000000        -0.000011748111
   15         17.766630000000        -0.000006368056
   16          8.712383000000         0.000003092077
   17          4.144971000000        -0.000001267137
   18          1.969649000000         0.000000673680
   19   18226110.000000000000        -0.000000459910
   20    2728802.000000000000        -0.000003633285
   21     620997.699999999953        -0.000019224219
   22     175899.600000000006        -0.000081220025
   23      57387.500000000000        -0.000295905798
   24      20717.180000000000        -0.000965764042
   25       8078.890000000000        -0.002872273046
   26       3349.517000000000        -0.007855438895
   27       1459.781000000000        -0.019491656139
   28        662.893900000000        -0.042710833104
   29        311.392200000000        -0.076224947133
   30        149.937500000000        -0.089916362135
   31         72.498250000000        -0.000754665563
   32         35.569350000000         0.208342286656
   33         17.766630000000         0.247005961806
   34          8.712383000000         0.070318834820
   35          4.144971000000         0.002640386656
   36          1.969649000000         0.000800886472
   37   18226110.000000000000         0.000003542807
   38    2728802.000000000000         0.000028342453
   39     620997.699999999953         0.000148797878
   40     175899.600000000006         0.000627962472
   41      57387.500000000000         0.002286881668
   42      20717.180000000000         0.007469122041
   43       8078.890000000000         0.022244397017
   44       3349.517000000000         0.061043443633
   45       1459.781000000000         0.152535538695
   46        662.893900000000         0.339364559697
   47        311.392200000000         0.624807602754
   48        149.937500000000         0.780052502806
   49         72.498250000000         0.005604720061
   50         35.569350000000        -2.551764033165
   51         17.766630000000        -4.472613550678
   52          8.712383000000        -0.237166988753
   53          4.144971000000         6.287346267433
   54          1.969649000000         4.568466840681
   55   18226110.000000000000        -0.000002604652
   56    2728802.000000000000        -0.000026046523
   57     620997.699999999953        -0.000138046571
   58     175899.600000000006        -0.000588651414
   59      57387.500000000000        -0.002143628823
   60      20717.180000000000        -0.006990886707
   61       8078.890000000000        -0.020873683334
   62       3349.517000000000        -0.057138256964
   63       1459.781000000000        -0.143448619411
   64        662.893900000000        -0.318460415094
   65        311.392200000000        -0.592863136951
   66        149.937500000000        -0.738695013194
   67         72.498250000000        -0.019704194463
   68         35.569350000000         2.608207625673
   69         17.766630000000         4.728308624256
   70          8.712383000000         0.291374636083
   71          4.144971000000        -9.313827606128
   72          1.969649000000       -11.909264621695
   73          0.679952000000         5.680001458432
   74          0.324502000000        -2.782995612905
   75          0.137441000000        -0.254362331264
   76          4.511300000000        12.422831676902
   77          8.961300000000        -7.256841238924
   78         17.800900000000         1.453649957206
 S 78
    1   18226110.000000000000        -0.000000033129
    2    2728802.000000000000        -0.000000260889
    3     620997.699999999953        -0.000001374843
    4     175899.600000000006        -0.000005804778
    5      57387.500000000000        -0.000021120614
    6      20717.180000000000        -0.000068571337
    7       8078.890000000000        -0.000201874183
    8       3349.517000000000        -0.000537683764
    9       1459.781000000000        -0.001264240746
   10        662.893900000000        -0.002467732681
   11        311.392200000000        -0.003527229466
   12        149.937500000000        -0.002891368650
   13         72.498250000000        -0.000870656695
   14         35.569350000000        -0.000025925318
   15         17.766630000000        -0.000014052802
   16          8.712383000000         0.000006823487
   17          4.144971000000        -0.000002796274
   18          1.969649000000         0.000001486653
   19   18226110.000000000000        -0.000000215508
   20    2728802.000000000000        -0.000001702513
   21     620997.699999999953        -0.000009008234
   22     175899.600000000006        -0.000038058711
   23      57387.500000000000        -0.000138657841
   24      20717.180000000000        -0.000452545227
   25       8078.890000000000        -0.001345912048
   26       3349.517000000000        -0.003680962666
   27       1459.781000000000        -0.009133551863
   28        662.893900000000        -0.020013774431
   29        311.392200000000        -0.035718078695
   30        149.937500000000        -0.042133708446
   31         72.498250000000        -0.000353627060
   32         35.569350000000         0.097626649415
   33         17.766630000000         0.115743975088
   34          8.712383000000         0.032950546643
   35          4.144971000000         0.001237252919
   36          1.969649000000         0.000375285613
   37   18226110.000000000000         0.000002466826
   38    2728802.000000000000         0.000019734612
   39     620997.699999999953         0.000103606713
   40     175899.600000000006         0.000437244995
   41      57387.500000000000         0.001592336499
   42      20717.180000000000         0.005200686946
   43       8078.890000000000         0.015488586819
   44       3349.517000000000         0.042504037115
   45       1459.781000000000         0.106209214491
   46        662.893900000000         0.236296692692
   47        311.392200000000         0.435048286218
   48        149.937500000000         0.543144006267
   49         72.498250000000         0.003902519506
   50         35.569350000000        -1.776771864759
   51         17.766630000000        -3.114243251140
   52          8.712383000000        -0.165137382372
   53          4.144971000000         4.377826400397
   54          1.969649000000         3.180985091925
   55   18226110.000000000000        -0.000001849537
   56    2728802.000000000000        -0.000018495372
   57     620997.699999999953        -0.000098025470
   58     175899.600000000006        -0.000417995399
   59      57387.500000000000        -0.001522169086
   60      20717.180000000000        -0.004964157748
   61       8078.890000000000        -0.014822190832
   62       3349.517000000000        -0.040573296766
   63       1459.781000000000        -0.101861409767
   64        662.893900000000        -0.226135510887
   65        311.392200000000        -0.420986100647
   66        149.937500000000        -0.524539836919
   67         72.498250000000        -0.013991748645
   68         35.569350000000         1.852061782179
   69         17.766630000000         3.357523998907
   70          8.712383000000         0.206902173920
   71          4.144971000000        -6.613654520949
   72          1.969649000000        -8.456648022413
   73          0.679952000000         6.768625436285
   74          0.324502000000        -7.213329765452
   75          0.137441000000         3.388652344173
   76          4.511300000000         7.902807817510
   77          8.961300000000        -4.082057355226
   78         17.800900000000         0.648908865048
 S 78
    1   18226110.000000000000         0.000006645784
    2    2728802.000000000000         0.000052335547
    3     620997.699999999953         0.000275800025
    4     175899.600000000006         0.001164465918
    5      57387.500000000000         0.004236894808
    6      20717.180000000000         0.013755733916
    7       8078.890000000000         0.040496913877
    8       3349.517000000000         0.107861900647
    9       1459.781000000000         0.253612660419
   10        662.893900000000         0.495038822606
   11        311.392200000000         0.707578878133
   12        149.937500000000         0.580022197404
   13         72.498250000000         0.174657842186
   14         35.569350000000         0.005200741130
   15         17.766630000000         0.002819058386
   16          8.712383000000        -0.001368823767
   17          4.144971000000         0.000560945683
   18          1.969649000000        -0.000298229545
   19   18226110.000000000000        -0.000044383848
   20    2728802.000000000000        -0.000350632396
   21     620997.699999999953        -0.001855244830
   22     175899.600000000006        -0.007838187488
   23      57387.500000000000        -0.028556567552
   24      20717.180000000000        -0.093201641594
   25       8078.890000000000        -0.277190443472
   26       3349.517000000000        -0.758093870700
   27       1459.781000000000        -1.881054037439
   28        662.893900000000        -4.121834721364
   29        311.392200000000        -7.356134518861
   30        149.937500000000        -8.677432785411
   31         72.498250000000        -0.072829455542
   32         35.569350000000        20.106198092177
   33         17.766630000000        23.837459392967
   34          8.712383000000         6.786161586252
   35          4.144971000000         0.254812107508
   36          1.969649000000         0.077290032226
   37   18226110.000000000000         0.000064316421
   38    2728802.000000000000         0.000514531367
   39     620997.699999999953         0.002701289678
   40     175899.600000000006         0.011400085604
   41      57387.500000000000         0.041516249688
   42      20717.180000000000         0.135595094353
   43       8078.890000000000         0.403826727698
   44       3349.517000000000         1.108188011137
   45       1459.781000000000         2.769143501662
   46        662.893900000000         6.160853878488
   47        311.392200000000        11.342811830944
   48        149.937500000000        14.161141315486
   49         72.498250000000         0.101748577857
   50         35.569350000000       -46.324947291924
   51         17.766630000000       -81.196217322384
   52          8.712383000000        -4.305550243122
   53          4.144971000000       114.141033676862
   54          1.969649000000        82.936346327031
   55   18226110.000000000000        -0.000019971999
   56    2728802.000000000000        -0.000199719994
   57     620997.699999999953        -0.001058515967
   58     175899.600000000006        -0.004513671858
   59      57387.500000000000        -0.016436955481
   60      20717.180000000000        -0.053604846308
   61       8078.890000000000        -0.160055602947
   62       3349.517000000000        -0.438125750169
   63       1459.781000000000        -1.099937893277
   64        662.893900000000        -2.441896474915
   65        311.392200000000        -4.545966580494
   66        149.937500000000        -5.664178853194
   67         72.498250000000        -0.151088175230
   68         35.569350000000        19.999261148668
   69         17.766630000000        36.255809559484
   70          8.712383000000         2.234207653471
   71          4.144971000000       -71.416734141532
   72          1.969649000000       -91.318072577290
   73          0.679952000000         3.640440764641
   74          0.324502000000        -2.112609567546
   75          0.137441000000         0.555681564229
   76          4.511300000000       -32.926229139029
   77          8.961300000000       -16.377019699845
   78         17.800900000000        34.474279506227
 S 78
    1   18226110.000000000000         0.000068832300
    2    2728802.000000000000         0.000542054366
    3     620997.699999999953         0.002856540466
    4     175899.600000000006         0.012060709633
    5      57387.500000000000         0.043882742504
    6      20717.180000000000         0.142472106747
    7       8078.890000000000         0.419438226425
    8       3349.517000000000         1.117156839262
    9       1459.781000000000         2.626739529067
   10        662.893900000000         5.127259978315
   11        311.392200000000         7.328598682937
   12        149.937500000000         6.007457321488
   13         72.498250000000         1.808981686379
   14         35.569350000000         0.053865577069
   15         17.766630000000         0.029197801419
   16          8.712383000000        -0.014177302870
   17          4.144971000000         0.005809876354
   18          1.969649000000        -0.003088849480
   19   18226110.000000000000        -0.000143319246
   20    2728802.000000000000        -0.001132222040
   21     620997.699999999953        -0.005990744465
   22     175899.600000000006        -0.025310178767
   23      57387.500000000000        -0.092211602596
   24      20717.180000000000        -0.300956083761
   25       8078.890000000000        -0.895071684323
   26       3349.517000000000        -2.447950041938
   27       1459.781000000000        -6.074084605888
   28        662.893900000000       -13.309757365151
   29        311.392200000000       -23.753588440599
   30        149.937500000000       -28.020173717203
   31         72.498250000000        -0.235172550047
   32         35.569350000000        64.924635807320
   33         17.766630000000        76.973198143429
   34          8.712383000000        21.913097020986
   35          4.144971000000         0.822810120710
   36          1.969649000000         0.249576134226
   37   18226110.000000000000         0.000145348782
   38    2728802.000000000000         0.001162790256
   39     620997.699999999953         0.006104648846
   40     175899.600000000006         0.025763071620
   41      57387.500000000000         0.093822638818
   42      20717.180000000000         0.306431569773
   43       8078.890000000000         0.912608665345
   44       3349.517000000000         2.504395852050
   45       1459.781000000000         6.257991811496
   46        662.893900000000        13.922923496115
   47        311.392200000000        25.633638529312
   48        149.937500000000        32.002785821886
   49         72.498250000000         0.229941773215
   50         35.569350000000      -104.689822194794
   51         17.766630000000      -183.495460897205
   52          8.712383000000        -9.730119854487
   53          4.144971000000       257.947503867836
   54          1.969649000000       187.427981207364
   55   18226110.000000000000        -0.000042543447
   56    2728802.000000000000        -0.000425434469
   57     620997.699999999953        -0.002254802684
   58     175899.600000000006        -0.009614818993
   59      57387.500000000000        -0.035013256774
   60      20717.180000000000        -0.114186611399
   61       8078.890000000000        -0.340943183216
   62       3349.517000000000        -0.933275593987
   63       1459.781000000000        -2.343037792919
   64        662.893900000000        -5.201617075008
   65        311.392200000000        -9.683611746209
   66        149.937500000000       -12.065576793014
   67         72.498250000000        -0.321841175572
   68         35.569350000000        42.601518674980
   69         17.766630000000        77.230480493415
   70          8.712383000000         4.759207771007
   71          4.144971000000      -152.128686685970
   72          1.969649000000      -194.521614840946
   73          0.679952000000         1.974369317092
   74          0.324502000000        -1.025509580218
   75          0.137441000000         0.252639463102
   76          4.511300000000      -112.743720814415
   77          8.961300000000         0.445069265068
   78         17.800900000000        20.851896314091
 P 45
    1      28600.830000000002         0.000083387337
    2       6770.991000000000         0.000741251403
    3       2199.049000000000         0.004263642783
    4        841.179600000000         0.018627766280
    5        356.766300000000         0.064912424562
    6        162.636200000000         0.178655646707
    7         77.966040000000         0.366781338295
    8         38.661490000000         0.506947871175
    9         19.576790000000         0.377706319919
   10          9.791761000000         0.108488028118
   11          4.835383000000         0.006869738268
   12          2.368125000000         0.001690764402
   13          1.089996000000        -0.000337408597
   14      28600.830000000002        -0.000006894821
   15       6770.991000000000        -0.000061436775
   16       2199.049000000000        -0.000353934125
   17        841.179600000000        -0.001562713893
   18        356.766300000000        -0.005536765170
   19        162.636200000000        -0.015821315020
   20         77.966040000000        -0.034051529011
   21         38.661490000000        -0.050307161674
   22         19.576790000000        -0.026971473162
   23          9.791761000000         0.060629296706
   24          4.835383000000         0.137328037891
   25          2.368125000000         0.104452552265
   26          1.089996000000         0.021023260975
   27      28600.830000000002        -0.000001090829
   28       6770.991000000000        -0.000009703490
   29       2199.049000000000        -0.000055876475
   30        841.179600000000        -0.000247308759
   31        356.766300000000        -0.000877237870
   32        162.636200000000        -0.002522500500
   33         77.966040000000        -0.005457008602
   34         38.661490000000        -0.008171625189
   35         19.576790000000        -0.003981524493
   36          9.791761000000         0.012258846092
   37          4.835383000000         0.028663296840
   38          2.368125000000         0.025572995617
   39          1.089996000000        -0.021239882404
   40          0.504588000000        -0.005498325834
   41          0.218455000000         0.003119129782
   42          0.089959000000        -0.000956474027
   43          3.084400000000        -0.251954810283
   44         11.359000000000        -0.331261919979
   45         41.831600000000        -0.096978158575
 P 45
    1      28600.830000000002         0.000038720343
    2       6770.991000000000         0.000344195048
    3       2199.049000000000         0.001979793531
    4        841.179600000000         0.008649676593
    5        356.766300000000         0.030141642903
    6        162.636200000000         0.082957534587
    7         77.966040000000         0.170312420112
    8         38.661490000000         0.235397796441
    9         19.576790000000         0.175385361033
   10          9.791761000000         0.050375678075
   11          4.835383000000         0.003189916247
   12          2.368125000000         0.000785094952
   13          1.089996000000        -0.000156673387
   14      28600.830000000002         0.000004160309
   15       6770.991000000000         0.000037070720
   16       2199.049000000000         0.000213562522
   17        841.179600000000         0.000942935698
   18        356.766300000000         0.003340863322
   19        162.636200000000         0.009546522099
   20         77.966040000000         0.020546564796
   21         38.661490000000         0.030355152531
   22         19.576790000000         0.016274485671
   23          9.791761000000        -0.036583490066
   24          4.835383000000        -0.082863222615
   25          2.368125000000        -0.063026277984
   26          1.089996000000        -0.012685356763
   27      28600.830000000002         0.000005808383
   28       6770.991000000000         0.000051668605
   29       2199.049000000000         0.000297527938
   30        841.179600000000         0.001316855880
   31        356.766300000000         0.004671067260
   32        162.636200000000         0.013431669901
   33         77.966040000000         0.029057174885
   34         38.661490000000         0.043511813804
   35         19.576790000000         0.021200599441
   36          9.791761000000        -0.065275219590
   37          4.835383000000        -0.152624723515
   38          2.368125000000        -0.136169660012
   39          1.089996000000         0.113096940575
   40          0.504588000000        -0.054354595398
   41          0.218455000000         0.022844475361
   42          0.089959000000        -0.006380124766
   43          3.084400000000         0.113791373476
   44         11.359000000000        -0.981524631293
   45         41.831600000000        -0.093207743827
 P 45
    1      28600.830000000002         0.000046108859
    2       6770.991000000000         0.000409873458
[...]
  BAS[ATNO][ 18].a[ 43] =        11.359000000000;     BAS[ATNO][ 18].d[ 43] =         2.671954623500;
  BAS[ATNO][ 18].a[ 44] =        41.831600000000;     BAS[ATNO][ 18].d[ 44] =        -4.765399506148;

  // Basis function  20 L = d
  InitBFNGauss(BAS[ATNO][ 19]);
  BAS[ATNO][ 19].l  = 2;
  BAS[ATNO][ 19].ng = 15;
  BAS[ATNO][ 19].a[  0] =      1437.779000000000;     BAS[ATNO][ 19].d[  0] =        -0.000337398329;
  BAS[ATNO][ 19].a[  1] =       434.268500000000;     BAS[ATNO][ 19].d[  1] =        -0.003297246489;
  BAS[ATNO][ 19].a[  2] =       168.927000000000;     BAS[ATNO][ 19].d[  2] =        -0.019508505388;
  BAS[ATNO][ 19].a[  3] =        74.777540000000;     BAS[ATNO][ 19].d[  3] =        -0.079897325142;
  BAS[ATNO][ 19].a[  4] =        35.516020000000;     BAS[ATNO][ 19].d[  4] =        -0.240026328646;
  BAS[ATNO][ 19].a[  5] =        17.671050000000;     BAS[ATNO][ 19].d[  5] =        -0.539190849844;
  BAS[ATNO][ 19].a[  6] =         9.004611000000;     BAS[ATNO][ 19].d[  6] =        -0.864696497112;
  BAS[ATNO][ 19].a[  7] =         4.594773000000;     BAS[ATNO][ 19].d[  7] =        -1.003273421050;
  BAS[ATNO][ 19].a[  8] =         2.326486000000;     BAS[ATNO][ 19].d[  8] =        -0.788379613808;
  BAS[ATNO][ 19].a[  9] =         1.133247000000;     BAS[ATNO][ 19].d[  9] =         0.130775043699;
  BAS[ATNO][ 19].a[ 10] =         0.481307000000;     BAS[ATNO][ 19].d[ 10] =        -0.040689314854;
  BAS[ATNO][ 19].a[ 11] =         0.205300000000;     BAS[ATNO][ 19].d[ 11] =         0.011863711697;
  BAS[ATNO][ 19].a[ 12] =         2.924200000000;     BAS[ATNO][ 19].d[ 12] =         1.109782335135;
  BAS[ATNO][ 19].a[ 13] =         6.230000000000;     BAS[ATNO][ 19].d[ 13] =         0.867006517382;
  BAS[ATNO][ 19].a[ 14] =        13.272800000000;     BAS[ATNO][ 19].d[ 14] =         0.290302833717;

  // Basis function  21 L = d
  InitBFNGauss(BAS[ATNO][ 20]);
  BAS[ATNO][ 20].l  = 2;
  BAS[ATNO][ 20].ng = 15;
  BAS[ATNO][ 20].a[  0] =      1437.779000000000;     BAS[ATNO][ 20].d[  0] =        -0.000283959493;
  BAS[ATNO][ 20].a[  1] =       434.268500000000;     BAS[ATNO][ 20].d[  1] =        -0.002775012089;
  BAS[ATNO][ 20].a[  2] =       168.927000000000;     BAS[ATNO][ 20].d[  2] =        -0.016418650671;
  BAS[ATNO][ 20].a[  3] =        74.777540000000;     BAS[ATNO][ 20].d[  3] =        -0.067242786927;
  BAS[ATNO][ 20].a[  4] =        35.516020000000;     BAS[ATNO][ 20].d[  4] =        -0.202009757464;
  BAS[ATNO][ 20].a[  5] =        17.671050000000;     BAS[ATNO][ 20].d[  5] =        -0.453791104578;
  BAS[ATNO][ 20].a[  6] =         9.004611000000;     BAS[ATNO][ 20].d[  6] =        -0.727741538385;
  BAS[ATNO][ 20].a[  7] =         4.594773000000;     BAS[ATNO][ 20].d[  7] =        -0.844369955579;
  BAS[ATNO][ 20].a[  8] =         2.326486000000;     BAS[ATNO][ 20].d[  8] =        -0.663512104999;
  BAS[ATNO][ 20].a[  9] =         1.133247000000;     BAS[ATNO][ 20].d[  9] =         0.096324718335;
  BAS[ATNO][ 20].a[ 10] =         0.481307000000;     BAS[ATNO][ 20].d[ 10] =        -0.023625082725;
  BAS[ATNO][ 20].a[ 11] =         0.205300000000;     BAS[ATNO][ 20].d[ 11] =         0.006328328175;
  BAS[ATNO][ 20].a[ 12] =         2.924200000000;     BAS[ATNO][ 20].d[ 12] =         1.511051027894;
  BAS[ATNO][ 20].a[ 13] =         6.230000000000;     BAS[ATNO][ 20].d[ 13] =         1.501411448799;
  BAS[ATNO][ 20].a[ 14] =        13.272800000000;     BAS[ATNO][ 20].d[ 14] =         0.299671486655;

  // Basis function  22 L = d
  InitBFNGauss(BAS[ATNO][ 21]);
  BAS[ATNO][ 21].l  = 2;
  BAS[ATNO][ 21].ng = 15;
  BAS[ATNO][ 21].a[  0] =      1437.779000000000;     BAS[ATNO][ 21].d[  0] =        -0.000225034647;
  BAS[ATNO][ 21].a[  1] =       434.268500000000;     BAS[ATNO][ 21].d[  1] =        -0.002199165301;
  BAS[ATNO][ 21].a[  2] =       168.927000000000;     BAS[ATNO][ 21].d[  2] =        -0.013011592634;
  BAS[ATNO][ 21].a[  3] =        74.777540000000;     BAS[ATNO][ 21].d[  3] =        -0.053289138589;
  BAS[ATNO][ 21].a[  4] =        35.516020000000;     BAS[ATNO][ 21].d[  4] =        -0.160090419414;
  BAS[ATNO][ 21].a[  5] =        17.671050000000;     BAS[ATNO][ 21].d[  5] =        -0.359624253652;
  BAS[ATNO][ 21].a[  6] =         9.004611000000;     BAS[ATNO][ 21].d[  6] =        -0.576726835218;
  BAS[ATNO][ 21].a[  7] =         4.594773000000;     BAS[ATNO][ 21].d[  7] =        -0.669153520238;
  BAS[ATNO][ 21].a[  8] =         2.326486000000;     BAS[ATNO][ 21].d[  8] =        -0.525825744802;
  BAS[ATNO][ 21].a[  9] =         1.133247000000;     BAS[ATNO][ 21].d[  9] =        -0.839588458380;
  BAS[ATNO][ 21].a[ 10] =         0.481307000000;     BAS[ATNO][ 21].d[ 10] =         0.162469383957;
  BAS[ATNO][ 21].a[ 11] =         0.205300000000;     BAS[ATNO][ 21].d[ 11] =        -0.046653775563;
  BAS[ATNO][ 21].a[ 12] =         2.924200000000;     BAS[ATNO][ 21].d[ 12] =         0.303852530002;
  BAS[ATNO][ 21].a[ 13] =         6.230000000000;     BAS[ATNO][ 21].d[ 13] =         1.851677479393;
  BAS[ATNO][ 21].a[ 14] =        13.272800000000;     BAS[ATNO][ 21].d[ 14] =         0.223796637385;

  // Basis function  23 L = d
  InitBFNGauss(BAS[ATNO][ 22]);
  BAS[ATNO][ 22].l  = 2;
  BAS[ATNO][ 22].ng = 15;
  BAS[ATNO][ 22].a[  0] =      1437.779000000000;     BAS[ATNO][ 22].d[  0] =        -0.000198198791;
  BAS[ATNO][ 22].a[  1] =       434.268500000000;     BAS[ATNO][ 22].d[  1] =        -0.001936910203;
  BAS[ATNO][ 22].a[  2] =       168.927000000000;     BAS[ATNO][ 22].d[  2] =        -0.011459932783;
  BAS[ATNO][ 22].a[  3] =        74.777540000000;     BAS[ATNO][ 22].d[  3] =        -0.046934296475;
  BAS[ATNO][ 22].a[  4] =        35.516020000000;     BAS[ATNO][ 22].d[  4] =        -0.140999299417;
  BAS[ATNO][ 22].a[  5] =        17.671050000000;     BAS[ATNO][ 22].d[  5] =        -0.316738303290;
  BAS[ATNO][ 22].a[  6] =         9.004611000000;     BAS[ATNO][ 22].d[  6] =        -0.507950944337;
  BAS[ATNO][ 22].a[  7] =         4.594773000000;     BAS[ATNO][ 22].d[  7] =        -0.589355552326;
  BAS[ATNO][ 22].a[  8] =         2.326486000000;     BAS[ATNO][ 22].d[  8] =        -0.463119916256;
  BAS[ATNO][ 22].a[  9] =         1.133247000000;     BAS[ATNO][ 22].d[  9] =         0.504930612959;
  BAS[ATNO][ 22].a[ 10] =         0.481307000000;     BAS[ATNO][ 22].d[ 10] =         0.829354216708;
  BAS[ATNO][ 22].a[ 11] =         0.205300000000;     BAS[ATNO][ 22].d[ 11] =        -0.159785232822;
  BAS[ATNO][ 22].a[ 12] =         2.924200000000;     BAS[ATNO][ 22].d[ 12] =        -1.004235155630;
  BAS[ATNO][ 22].a[ 13] =         6.230000000000;     BAS[ATNO][ 22].d[ 13] =         2.088876418166;
  BAS[ATNO][ 22].a[ 14] =        13.272800000000;     BAS[ATNO][ 22].d[ 14] =         0.186638987066;

  // Basis function  24 L = d
  InitBFNGauss(BAS[ATNO][ 23]);
  BAS[ATNO][ 23].l  = 2;
  BAS[ATNO][ 23].ng = 15;
  BAS[ATNO][ 23].a[  0] =      1437.779000000000;     BAS[ATNO][ 23].d[  0] =        -0.000179426304;
  BAS[ATNO][ 23].a[  1] =       434.268500000000;     BAS[ATNO][ 23].d[  1] =        -0.001753454894;
  BAS[ATNO][ 23].a[  2] =       168.927000000000;     BAS[ATNO][ 23].d[  2] =        -0.010374500166;
  BAS[ATNO][ 23].a[  3] =        74.777540000000;     BAS[ATNO][ 23].d[  3] =        -0.042488893765;
  BAS[ATNO][ 23].a[  4] =        35.516020000000;     BAS[ATNO][ 23].d[  4] =        -0.127644488228;
  BAS[ATNO][ 23].a[  5] =        17.671050000000;     BAS[ATNO][ 23].d[  5] =        -0.286738294396;
  BAS[ATNO][ 23].a[  6] =         9.004611000000;     BAS[ATNO][ 23].d[  6] =        -0.459840145327;
  BAS[ATNO][ 23].a[  7] =         4.594773000000;     BAS[ATNO][ 23].d[  7] =        -0.533534479762;
  BAS[ATNO][ 23].a[  8] =         2.326486000000;     BAS[ATNO][ 23].d[  8] =        -0.419255307958;
  BAS[ATNO][ 23].a[  9] =         1.133247000000;     BAS[ATNO][ 23].d[  9] =         2.319618785135;
  BAS[ATNO][ 23].a[ 10] =         0.481307000000;     BAS[ATNO][ 23].d[ 10] =        -1.481166196756;
  BAS[ATNO][ 23].a[ 11] =         0.205300000000;     BAS[ATNO][ 23].d[ 11] =        -0.100038436084;
  BAS[ATNO][ 23].a[ 12] =         2.924200000000;     BAS[ATNO][ 23].d[ 12] =        -1.638403498233;
  BAS[ATNO][ 23].a[ 13] =         6.230000000000;     BAS[ATNO][ 23].d[ 13] =         2.038828787129;
  BAS[ATNO][ 23].a[ 14] =        13.272800000000;     BAS[ATNO][ 23].d[ 14] =         0.194160540447;

  // Basis function  25 L = d
  InitBFNGauss(BAS[ATNO][ 24]);
  BAS[ATNO][ 24].l  = 2;
  BAS[ATNO][ 24].ng = 15;
  BAS[ATNO][ 24].a[  0] =      1437.779000000000;     BAS[ATNO][ 24].d[  0] =         0.000088113497;
  BAS[ATNO][ 24].a[  1] =       434.268500000000;     BAS[ATNO][ 24].d[  1] =         0.000861094715;
  BAS[ATNO][ 24].a[  2] =       168.927000000000;     BAS[ATNO][ 24].d[  2] =         0.005094757383;
  BAS[ATNO][ 24].a[  3] =        74.777540000000;     BAS[ATNO][ 24].d[  3] =         0.020865641887;
  BAS[ATNO][ 24].a[  4] =        35.516020000000;     BAS[ATNO][ 24].d[  4] =         0.062684243911;
  BAS[ATNO][ 24].a[  5] =        17.671050000000;     BAS[ATNO][ 24].d[  5] =         0.140812763904;
  BAS[ATNO][ 24].a[  6] =         9.004611000000;     BAS[ATNO][ 24].d[  6] =         0.225820419118;
  BAS[ATNO][ 24].a[  7] =         4.594773000000;     BAS[ATNO][ 24].d[  7] =         0.262010572713;
  BAS[ATNO][ 24].a[  8] =         2.326486000000;     BAS[ATNO][ 24].d[  8] =         0.205889830025;
  BAS[ATNO][ 24].a[  9] =         1.133247000000;     BAS[ATNO][ 24].d[  9] =        -1.743798782829;
  BAS[ATNO][ 24].a[ 10] =         0.481307000000;     BAS[ATNO][ 24].d[ 10] =         2.249622853790;
  BAS[ATNO][ 24].a[ 11] =         0.205300000000;     BAS[ATNO][ 24].d[ 11] =        -1.761953864319;
  BAS[ATNO][ 24].a[ 12] =         2.924200000000;     BAS[ATNO][ 24].d[ 12] =         0.926825598119;
  BAS[ATNO][ 24].a[ 13] =         6.230000000000;     BAS[ATNO][ 24].d[ 13] =        -0.980383898895;
  BAS[ATNO][ 24].a[ 14] =        13.272800000000;     BAS[ATNO][ 24].d[ 14] =        -0.121139396286;

  // Basis function  26 L = d
  InitBFNGauss(BAS[ATNO][ 25]);
  BAS[ATNO][ 25].l  = 2;
  BAS[ATNO][ 25].ng = 15;
  BAS[ATNO][ 25].a[  0] =      1437.779000000000;     BAS[ATNO][ 25].d[  0] =        -0.001129068557;
  BAS[ATNO][ 25].a[  1] =       434.268500000000;     BAS[ATNO][ 25].d[  1] =        -0.011033893801;
  BAS[ATNO][ 25].a[  2] =       168.927000000000;     BAS[ATNO][ 25].d[  2] =        -0.065283192313;
  BAS[ATNO][ 25].a[  3] =        74.777540000000;     BAS[ATNO][ 25].d[  3] =        -0.267368121688;
  BAS[ATNO][ 25].a[  4] =        35.516020000000;     BAS[ATNO][ 25].d[  4] =        -0.803223243470;
  BAS[ATNO][ 25].a[  5] =        17.671050000000;     BAS[ATNO][ 25].d[  5] =        -1.804346321944;
  BAS[ATNO][ 25].a[  6] =         9.004611000000;     BAS[ATNO][ 25].d[  6] =        -2.893617250019;
  BAS[ATNO][ 25].a[  7] =         4.594773000000;     BAS[ATNO][ 25].d[  7] =        -3.357350570207;
  BAS[ATNO][ 25].a[  8] =         2.326486000000;     BAS[ATNO][ 25].d[  8] =        -2.638230706029;
  BAS[ATNO][ 25].a[  9] =         1.133247000000;     BAS[ATNO][ 25].d[  9] =        -0.568308005257;
  BAS[ATNO][ 25].a[ 10] =         0.481307000000;     BAS[ATNO][ 25].d[ 10] =         0.404740420592;
  BAS[ATNO][ 25].a[ 11] =         0.205300000000;     BAS[ATNO][ 25].d[ 11] =        -0.149113113229;
  BAS[ATNO][ 25].a[ 12] =         2.924200000000;     BAS[ATNO][ 25].d[ 12] =         5.742902117379;
  BAS[ATNO][ 25].a[ 13] =         6.230000000000;     BAS[ATNO][ 25].d[ 13] =         0.284443847261;
  BAS[ATNO][ 25].a[ 14] =        13.272800000000;     BAS[ATNO][ 25].d[ 14] =         5.722765441505;

  // Basis function  27 L = f
  InitBFNGauss(BAS[ATNO][ 26]);
  BAS[ATNO][ 26].l  = 3;
  BAS[ATNO][ 26].ng = 5;
  BAS[ATNO][ 26].a[  0] =         0.413000000000;     BAS[ATNO][ 26].d[  0] =         0.005607416294;
  BAS[ATNO][ 26].a[  1] =         0.955700000000;     BAS[ATNO][ 26].d[  1] =        -0.010899725087;
  BAS[ATNO][ 26].a[  2] =         3.492200000000;     BAS[ATNO][ 26].d[  2] =         0.360067377699;
  BAS[ATNO][ 26].a[  3] =         8.463500000000;     BAS[ATNO][ 26].d[  3] =         0.591590640838;
  BAS[ATNO][ 26].a[  4] =        20.511700000000;     BAS[ATNO][ 26].d[  4] =         0.216552072006;

  // Basis function  28 L = f
  InitBFNGauss(BAS[ATNO][ 27]);
  BAS[ATNO][ 27].l  = 3;
  BAS[ATNO][ 27].ng = 5;
  BAS[ATNO][ 27].a[  0] =         0.413000000000;     BAS[ATNO][ 27].d[  0] =        -0.132949464087;
  BAS[ATNO][ 27].a[  1] =         0.955700000000;     BAS[ATNO][ 27].d[  1] =         0.493694816936;
  BAS[ATNO][ 27].a[  2] =         3.492200000000;     BAS[ATNO][ 27].d[  2] =         0.847559336645;
  BAS[ATNO][ 27].a[  3] =         8.463500000000;     BAS[ATNO][ 27].d[  3] =        -0.633768972810;
  BAS[ATNO][ 27].a[  4] =        20.511700000000;     BAS[ATNO][ 27].d[  4] =        -0.220992515485;

  // Basis function  29 L = f
  InitBFNGauss(BAS[ATNO][ 28]);
  BAS[ATNO][ 28].l  = 3;
  BAS[ATNO][ 28].ng = 5;
  BAS[ATNO][ 28].a[  0] =         0.413000000000;     BAS[ATNO][ 28].d[  0] =         0.011490968209;
  BAS[ATNO][ 28].a[  1] =         0.955700000000;     BAS[ATNO][ 28].d[  1] =         1.034856815184;
  BAS[ATNO][ 28].a[  2] =         3.492200000000;     BAS[ATNO][ 28].d[  2] =        -0.948500114185;
  BAS[ATNO][ 28].a[  3] =         8.463500000000;     BAS[ATNO][ 28].d[  3] =         0.408755480032;
  BAS[ATNO][ 28].a[  4] =        20.511700000000;     BAS[ATNO][ 28].d[  4] =         0.202243900242;

  // Basis function  30 L = f
  InitBFNGauss(BAS[ATNO][ 29]);
  BAS[ATNO][ 29].l  = 3;
  BAS[ATNO][ 29].ng = 5;
  BAS[ATNO][ 29].a[  0] =         0.413000000000;     BAS[ATNO][ 29].d[  0] =         1.408565052967;
  BAS[ATNO][ 29].a[  1] =         0.955700000000;     BAS[ATNO][ 29].d[  1] =        -1.064160908220;
  BAS[ATNO][ 29].a[  2] =         3.492200000000;     BAS[ATNO][ 29].d[  2] =         0.440604488142;
  BAS[ATNO][ 29].a[  3] =         8.463500000000;     BAS[ATNO][ 29].d[  3] =        -0.129049861420;
  BAS[ATNO][ 29].a[  4] =        20.511700000000;     BAS[ATNO][ 29].d[  4] =        -0.109985231461;

  // Basis function  31 L = f
  InitBFNGauss(BAS[ATNO][ 30]);
  BAS[ATNO][ 30].l  = 3;
  BAS[ATNO][ 30].ng = 5;
  BAS[ATNO][ 30].a[  0] =         0.413000000000;     BAS[ATNO][ 30].d[  0] =        -0.202461497645;
  BAS[ATNO][ 30].a[  1] =         0.955700000000;     BAS[ATNO][ 30].d[  1] =         0.402810423552;
  BAS[ATNO][ 30].a[  2] =         3.492200000000;     BAS[ATNO][ 30].d[  2] =        -0.949198950797;
  BAS[ATNO][ 30].a[  3] =         8.463500000000;     BAS[ATNO][ 30].d[  3] =         1.671435768791;
  BAS[ATNO][ 30].a[  4] =        20.511700000000;     BAS[ATNO][ 30].d[  4] =        -1.390667293143;

  // Basis function  32 L = g
  InitBFNGauss(BAS[ATNO][ 31]);
  BAS[ATNO][ 31].l  = 4;
  BAS[ATNO][ 31].ng = 3;
  BAS[ATNO][ 31].a[  0] =         0.739500000000;     BAS[ATNO][ 31].d[  0] =         0.112802563227;
  BAS[ATNO][ 31].a[  1] =         4.964300000000;     BAS[ATNO][ 31].d[  1] =         0.891354201556;
  BAS[ATNO][ 31].a[  2] =        12.701900000000;     BAS[ATNO][ 31].d[  2] =         0.148752319838;

  // Basis function  33 L = g
  InitBFNGauss(BAS[ATNO][ 32]);
  BAS[ATNO][ 32].l  = 4;
  BAS[ATNO][ 32].ng = 3;
  BAS[ATNO][ 32].a[  0] =         0.739500000000;     BAS[ATNO][ 32].d[  0] =         0.993963593093;
  BAS[ATNO][ 32].a[  1] =         4.964300000000;     BAS[ATNO][ 32].d[  1] =        -0.154580513422;
  BAS[ATNO][ 32].a[  2] =        12.701900000000;     BAS[ATNO][ 32].d[  2] =        -0.094271158204;

  // Basis function  34 L = g
  InitBFNGauss(BAS[ATNO][ 33]);
  BAS[ATNO][ 33].l  = 4;
  BAS[ATNO][ 33].ng = 3;
  BAS[ATNO][ 33].a[  0] =         0.739500000000;     BAS[ATNO][ 33].d[  0] =         0.125141272590;
  BAS[ATNO][ 33].a[  1] =         4.964300000000;     BAS[ATNO][ 33].d[  1] =        -0.808785076907;
  BAS[ATNO][ 33].a[  2] =        12.701900000000;     BAS[ATNO][ 33].d[  2] =         1.193000580594;

  // Basis function  35 L = h
  InitBFNGauss(BAS[ATNO][ 34]);
  BAS[ATNO][ 34].l  = 5;
  BAS[ATNO][ 34].ng = 1;
  BAS[ATNO][ 34].a[  0] =        10.305300000000;     BAS[ATNO][ 34].d[  0] =         1.000000000000;

-------
TIMINGS
-------

Total SCF time: 0 days 0 hours 0 min 12 sec 

Total time                  ....      12.019 sec
Sum of individual times     ....      11.686 sec  ( 97.2%)

Fock matrix formation       ....      10.870 sec  ( 90.4%)
  XC integration            ....       0.110 sec  (  1.0% of F)
    Basis function eval.    ....       0.021 sec  ( 19.2% of XC)
    Density eval.           ....       0.010 sec  (  8.7% of XC)
    XC-Functional eval.     ....       0.003 sec  (  3.2% of XC)
    XC-Potential eval.      ....       0.022 sec  ( 19.6% of XC)
Diagonalization             ....       0.016 sec  (  0.1%)
Density matrix formation    ....       0.005 sec  (  0.0%)
Population analysis         ....       0.002 sec  (  0.0%)
Initial guess               ....       0.080 sec  (  0.7%)
Orbital Transformation      ....       0.000 sec  (  0.0%)
Orbital Orthonormalization  ....       0.000 sec  (  0.0%)
DIIS solution               ....       0.003 sec  (  0.0%)
SOSCF solution              ....       0.004 sec  (  0.0%)
Grid generation             ....       0.704 sec  (  5.9%)

-------------------------   --------------------
FINAL SINGLE POINT ENERGY     -1281.687262658425
-------------------------   --------------------


                            ***************************************
                            *     ORCA property calculations      *
                            ***************************************

                                    ---------------------
                                    Active property flags
                                    ---------------------
   (+) Dipole Moment


------------------------------------------------------------------------------
                       ORCA ELECTRIC PROPERTIES CALCULATION
------------------------------------------------------------------------------

Dipole Moment Calculation                       ... on
Quadrupole Moment Calculation                   ... off
Polarizability Calculation                      ... off
GBWName                                         ... Kr_cc-pcvqz_274.071978_.gbw
Electron density file                           ... Kr_cc-pcvqz_274.071978_.scfp
The origin for moment calculation is the CENTER OF MASS  = ( 0.000000,  0.000000  0.000000)

-------------
DIPOLE MOMENT
-------------
                                X             Y             Z
Electronic contribution:     -0.00000      -0.00000       0.00000
Nuclear contribution   :      0.00000       0.00000       0.00000
                        -----------------------------------------
Total Dipole Moment    :     -0.00000      -0.00000       0.00000
                        -----------------------------------------
Magnitude (a.u.)       :      0.00000
Magnitude (Debye)      :      0.00000



--------------------
Rotational spectrum 
--------------------
 
Rotational constants in cm-1:     0.000000     0.000000     0.000000 
Rotational constants in MHz :     0.000000     0.000000     0.000000 

 Dipole components along the rotational axes: 
x,y,z [a.u.] :    -0.000000    -0.000000     0.000000 
x,y,z [Debye]:    -0.000000    -0.000000     0.000000 

 

Timings for individual modules:

Sum of individual times         ...       14.554 sec (=   0.243 min)
GTO integral calculation        ...        1.717 sec (=   0.029 min)  11.8 %
Relativistic integrals          ...        0.538 sec (=   0.009 min)   3.7 %
SCF iterations                  ...       12.299 sec (=   0.205 min)  84.5 %
                             ****ORCA TERMINATED NORMALLY****
TOTAL RUN TIME: 0 days 0 hours 0 minutes 14 seconds 939 msec
