
                                 *****************
                                 * O   R   C   A *
                                 *****************

           --- An Ab Initio, DFT and Semiempirical electronic structure package ---

                  #######################################################
                  #                        -***-                        #
                  #          Department of theory and spectroscopy      #
                  #               Directorship: Frank Neese             #
                  #        Max Planck Institute fuer Kohlenforschung    #
                  #                Kaiser Wilhelm Platz 1               #
                  #                 D-45470 Muelheim/Ruhr               #
                  #                      Germany                        #
                  #                                                     #
                  #                  All rights reserved                #
                  #                        -***-                        #
                  #######################################################


                         Program Version 4.2.1 -  RELEASE  -


 With contributions from (in alphabetic order):
   Daniel Aravena         : Magnetic Suceptibility
   Michael Atanasov       : Ab Initio Ligand Field Theory (pilot matlab implementation)
   Alexander A. Auer      : GIAO ZORA, VPT2
   Ute Becker             : Parallelization
   Giovanni Bistoni       : ED, misc. LED, open-shell LED, HFLD
   Martin Brehm           : Molecular dynamics
   Dmytro Bykov           : SCF Hessian
   Vijay G. Chilkuri      : MRCI spin determinant printing, contributions to CSF-ICE
   Dipayan Datta          : RHF DLPNO-CCSD density
   Achintya Kumar Dutta   : EOM-CC, STEOM-CC
   Dmitry Ganyushin       : Spin-Orbit,Spin-Spin,Magnetic field MRCI
   Miquel Garcia          : C-PCM Hessian, Gaussian charge scheme
   Yang Guo               : DLPNO-NEVPT2, CIM, IAO-localization
   Andreas Hansen         : Spin unrestricted coupled pair/coupled cluster methods
   Benjamin Helmich-Paris : CASSCF linear response (MC-RPA)
   Lee Huntington         : MR-EOM, pCC
   Robert Izsak           : Overlap fitted RIJCOSX, COSX-SCS-MP3, EOM
   Christian Kollmar      : KDIIS, OOCD, Brueckner-CCSD(T), CCSD density
   Simone Kossmann        : Meta GGA functionals, TD-DFT gradient, OOMP2, MP2 Hessian
   Martin Krupicka        : AUTO-CI
   Lucas Lang             : DCDCAS
   Dagmar Lenk            : GEPOL surface, SMD
   Dimitrios Liakos       : Extrapolation schemes; Compound Job, initial MDCI parallelization
   Dimitrios Manganas     : Further ROCIS development; embedding schemes
   Dimitrios Pantazis     : SARC Basis sets
   Taras Petrenko         : DFT Hessian,TD-DFT gradient, ASA, ECA, R-Raman, ABS, FL, XAS/XES, NRVS
   Peter Pinski           : DLPNO-MP2, DLPNO-MP2 Gradient
   Christoph Reimann      : Effective Core Potentials
   Marius Retegan         : Local ZFS, SOC
   Christoph Riplinger    : Optimizer, TS searches, QM/MM, DLPNO-CCSD(T), (RO)-DLPNO pert. Triples
   Tobias Risthaus        : Range-separated hybrids, TD-DFT gradient, RPA, STAB
   Michael Roemelt        : Original ROCIS implementation
   Masaaki Saitow         : Open-shell DLPNO-CCSD energy and density
   Barbara Sandhoefer     : DKH picture change effects
   Avijit Sen             : IP-ROCIS
   Kantharuban Sivalingam : CASSCF convergence, NEVPT2, FIC-MRCI
   Bernardo de Souza      : ESD, SOC TD-DFT
   Georgi Stoychev        : AutoAux, RI-MP2 NMR
   Willem Van den Heuvel  : Paramagnetic NMR
   Boris Wezisla          : Elementary symmetry handling
   Frank Wennmohs         : Technical directorship


 We gratefully acknowledge several colleagues who have allowed us to
 interface, adapt or use parts of their codes:
   Stefan Grimme, W. Hujo, H. Kruse,             : VdW corrections, initial TS optimization,
                  C. Bannwarth                     DFT functionals, gCP, sTDA/sTD-DF
   Ed Valeev, F. Pavosevic, A. Kumar             : LibInt (2-el integral package), F12 methods
   Garnet Chan, S. Sharma, J. Yang, R. Olivares  : DMRG
   Ulf Ekstrom                                   : XCFun DFT Library
   Mihaly Kallay                                 : mrcc  (arbitrary order and MRCC methods)
   Andreas Klamt, Michael Diedenhofen            : otool_cosmo (COSMO solvation model)
   Jiri Pittner, Ondrej Demel                    : Mk-CCSD
   Frank Weinhold                                : gennbo (NPA and NBO analysis)
   Christopher J. Cramer and Donald G. Truhlar   : smd solvation model
   Lars Goerigk                                  : TD-DFT with DH, B97 family of functionals
   V. Asgeirsson, H. Jonsson                     : NEB implementation
   FAccTs GmbH                                   : IRC, NEB, NEB-TS, Multilevel, MM, QM/MM, CI optimization
   S Lehtola, MJT Oliveira, MAL Marques          : LibXC Library


 Your calculation uses the libint2 library for the computation of 2-el integrals
 For citations please refer to: http://libint.valeyev.net

 Your ORCA version has been built with support for libXC version: 4.2.3
 For citations please refer to: https://tddft.org/programs/libxc/

 This ORCA versions uses:
   CBLAS   interface :  Fast vector & matrix operations
   LAPACKE interface :  Fast linear algebra routines
   SCALAPACK package :  Parallel linear algebra routines


----- Orbital basis set information -----
Your calculation utilizes the basis: cc-pCVTZ 
             H : cc-pVTZ. Obtained from the ccRepo (grant-hill.group.shef.ac.uk/ccrepo) Feb. 2017
                 T. H. Dunning, Jr., J. Chem. Phys. 90, 1007 (1989)
            He : cc-pVTZ. Obtained from the ccRepo (grant-hill.group.shef.ac.uk/ccrepo) Feb. 2017
                 D. E. Woon, T. H. Dunning, Jr., J. Chem. Phys. 100, 2975 (1994)
  Li-Be, Na-Mg : Obtained from the ccRepo (grant-hill.group.shef.ac.uk/ccrepo) Feb. 2017
                 B. P. Prascher, D. E. Woon, K. A. Peterson, T. H. Dunning, Jr., A. K. Wilson, Theor. Chem. Acc. 128, 69 (2011)
          B-Ne : Obtained from the ccRepo (grant-hill.group.shef.ac.uk/ccrepo) Feb. 2017
                 D. E. Woon, T. H. Dunning, Jr., J. Chem. Phys. 103, 4572 (1995)
                  K. A. Peterson, T. H. Dunning, Jr., J. Chem. Phys. 117, 10548 (2002)
         Al-Ar : Obtained from the EMSL Basis Set Exchange (bse.pnl.gov) Feb. 2017
                 K. A. Peterson, T. H. Dunning, Jr., J. Chem. Phys. 117, 10548 (2002)
            Ca : Obtained from the Peterson Research Group Website (tyr0.chem.wsu.edu/~kipeters) Feb. 2017
                 J. Koput, K. A. Peterson, J. Phys. Chem. 106, 9595 (2002)
         Ga-Kr : Obtained from the Peterson Research Group Website (tyr0.chem.wsu.edu/~kipeters) Feb. 2017
                 N. J. DeYonker, K. A. Peterson, A. K. Wilson, J. Phys. Chem. A 111, 11383 (2007)

================================================================================
                                        WARNINGS
                       Please study these warnings very carefully!
================================================================================


INFO   : the flag for use of LIBINT has been found!

================================================================================
                                       INPUT FILE
================================================================================
NAME = Kr_cc-pcvtz_68.5179945_.inp
|  1> ! LDA cc-pcvtz nori grid5 finalgrid6 verytightscf
|  2> %Pal NProcs 18 End
|  3> 
|  4> % REL
|  5>   Method ZORA
|  6>   ModelPot 1, 0, 0, 0
|  7>   velit 68.5179945
|  8> END
|  9> 
| 10> *xyz 34 1
| 11> Kr 0.0 0.0 0.0
| 12> **                         ****END OF INPUT****
================================================================================

                       ****************************
                       * Single Point Calculation *
                       ****************************

---------------------------------
CARTESIAN COORDINATES (ANGSTROEM)
---------------------------------
  Kr     0.000000    0.000000    0.000000

----------------------------
CARTESIAN COORDINATES (A.U.)
----------------------------
  NO LB      ZA    FRAG     MASS         X           Y           Z
   0 Kr   36.0000    0    83.800    0.000000    0.000000    0.000000

--------------------------------
INTERNAL COORDINATES (ANGSTROEM)
--------------------------------
 Kr     0   0   0     0.000000000000     0.00000000     0.00000000

---------------------------
INTERNAL COORDINATES (A.U.)
---------------------------
 Kr     0   0   0     0.000000000000     0.00000000     0.00000000

---------------------
BASIS SET INFORMATION
---------------------
There are 1 groups of distinct atoms

 Group   1 Type Kr  : 76s37p11d3f1g contracted to 8s7p5d3f1g pattern {181818181111/1111111111/71111/111/1}

Atom   0Kr   basis set group =>   1


           ************************************************************
           *        Program running with 18 parallel MPI-processes    *
           *              working on a common directory               *
           ************************************************************
------------------------------------------------------------------------------
                           ORCA GTO INTEGRAL CALCULATION
------------------------------------------------------------------------------

                         BASIS SET STATISTICS AND STARTUP INFO

 # of primitive gaussian shells          ...  128
 # of primitive gaussian functions       ...  272
 # of contracted shells                  ...   24
 # of contracted basis functions         ...   84
 Highest angular momentum                ...    4
 Maximum contraction depth               ...   18
 Integral package used                   ... LIBINT
 Integral threshhold            Thresh   ...  1.000e-12
 Primitive cut-off              TCut     ...  1.000e-14


------------------------------ INTEGRAL EVALUATION ----------------------------


 * One electron integrals 
 Pre-screening matrix                    ... done
 Shell pair data                         ... done (   0.000 sec)



           ************************************************************
           *        Program running with 18 parallel MPI-processes    *
           *              working on a common directory               *
           ************************************************************
------------------------------------------------------------------------------
                          ORCA RELATIVISTIC HAMILTONIAN
------------------------------------------------------------------------------

Relativistic Method            ... ZORA(MP)
Treatment of potential         ... Van Wuellen
Nucleus model                  ... Point Nucleus
Speed of light used            ...  68.51799450000000


            *************************************************
            *         ZERO ORDER REGULAR APPROXIMATION      *
            *                     ZORA(MP)                  *
            *            Programmed by FN according to      *
            *                   C. van Wuellen              *
            *       J. Chem. Phys. (1998) vol 109, 392-399  *
            *************************************************

Terms included in model potential: +V(e,N)
Basis function cutoff value   ... 1.000000e-12
Loading the fitted atomic densities  (DKH4)  ... done
Calculating the cutoffs                      ... done
Number of fit functions                      ... 27
Setting up the integration grid ... done


           ************************************************************
           *        Program running with 18 parallel MPI-processes    *
           *              working on a common directory               *
           ************************************************************
-------------------------------------------------------------------------------
                                 ORCA SCF
-------------------------------------------------------------------------------

------------
SCF SETTINGS
------------
Hamiltonian:
 Density Functional     Method          .... DFT(GTOs)
 Exchange Functional    Exchange        .... Slater
   X-Alpha parameter    XAlpha          ....  0.666667
 Correlation Functional Correlation     .... VWN-5
 Gradients option       PostSCFGGA      .... off
   Density functional embedding theory  .... OFF

Relativistic Settings:
 Scalar relativistic method             .... ZORA
 Speed of light used       Velit        ....       68.5179945
Orbital energies will be scaled


General Settings:
 Integral files         IntName         .... Kr_cc-pcvtz_68.5179945_
 Hartree-Fock type      HFTyp           .... RHF
 Total Charge           Charge          ....   34
 Multiplicity           Mult            ....    1
 Number of Electrons    NEL             ....    2
 Basis Dimension        Dim             ....   84
 Nuclear Repulsion      ENuc            ....      0.0000000000 Eh

Convergence Acceleration:
 DIIS                   CNVDIIS         .... on
   Start iteration      DIISMaxIt       ....    12
   Startup error        DIISStart       ....  0.200000
   # of expansion vecs  DIISMaxEq       ....     5
   Bias factor          DIISBfac        ....   1.050
   Max. coefficient     DIISMaxC        ....  10.000
 Newton-Raphson         CNVNR           .... off
 SOSCF                  CNVSOSCF        .... on
   Start iteration      SOSCFMaxIt      ....   150
   Startup grad/error   SOSCFStart      ....  0.003300
 Level Shifting         CNVShift        .... on
   Level shift para.    LevelShift      ....    0.2500
   Turn off err/grad.   ShiftErr        ....    0.0010
 Zerner damping         CNVZerner       .... off
 Static damping         CNVDamp         .... on
   Fraction old density DampFac         ....    0.7000
   Max. Damping (<1)    DampMax         ....    0.9800
   Min. Damping (>=0)   DampMin         ....    0.0000
   Turn off err/grad.   DampErr         ....    0.1000
 Fernandez-Rico         CNVRico         .... off

SCF Procedure:
 Maximum # iterations   MaxIter         ....   125
 SCF integral mode      SCFMode         .... Direct
   Integral package                     .... LIBINT
 Reset frequency        DirectResetFreq ....    20
 Integral Threshold     Thresh          ....  1.000e-12 Eh
 Primitive CutOff       TCut            ....  1.000e-14 Eh

Convergence Tolerance:
 Convergence Check Mode ConvCheckMode   .... Total+1el-Energy
 Convergence forced     ConvForced      .... 0
 Energy Change          TolE            ....  1.000e-09 Eh
 1-El. energy change                    ....  1.000e-06 Eh
 Orbital Gradient       TolG            ....  2.000e-06
 Orbital Rotation angle TolX            ....  2.000e-06
 DIIS Error             TolErr          ....  1.000e-08


Diagonalization of the overlap matrix:
Smallest eigenvalue                        ... 1.149e-03
Time for diagonalization                   ...    0.003 sec
Threshold for overlap eigenvalues          ... 1.000e-08
Number of eigenvalues below threshold      ... 0
Time for construction of square roots      ...    0.002 sec
Total time needed                          ...    0.004 sec

-------------------
DFT GRID GENERATION
-------------------

General Integration Accuracy     IntAcc      ...  5.010
Radial Grid Type                 RadialGrid  ... Gauss-Chebyshev
Angular Grid (max. acc.)         AngularGrid ... Lebedev-434
Angular grid pruning method      GridPruning ... 3 (G Style)
Weight generation scheme         WeightScheme... Becke
Basis function cutoff            BFCut       ...    1.0000e-12
Integration weight cutoff        WCut        ...    1.0000e-14
Grids for H and He will be reduced by one unit

# of grid points (after initial pruning)     ...  16106 (   0.0 sec)
# of grid points (after weights+screening)   ...  16106 (   0.0 sec)
Grid point division into batches done        ...    0.2 sec
Reduced shell lists constructed in    0.2 sec

Total number of grid points                  ...    16106
Total number of batches                      ...      252
Average number of points per batch           ...       63
Average number of grid points per atom       ...    16106
Average number of shells per batch           ...     0.53 ( 2.22%)
Average number of basis functions per batch  ...     1.60 ( 1.90%)
Average number of large shells per batch     ...     0.53 (100.00%)
Average number of large basis fcns per batch ...     1.60 (100.00%)
Maximum spatial batch extension              ...  17.34, 17.34, 17.34 au
Average spatial batch extension              ...   0.86,  0.87,  0.87 au

Time for grid setup =    0.268 sec

------------------------------
INITIAL GUESS: MODEL POTENTIAL
------------------------------
Loading ZORA relativistic densities                ... done
Calculating cut-offs                               ... done
Setting up the integral package                    ... done
Initializing the effective Hamiltonian             ... done
Starting the Coulomb interaction                   ... done (   0.0 sec)
Reading the grid                                   ... done
Mapping shells                                     ... done
Starting the XC term evaluation                    ... done (   0.0 sec)
  promolecular density results
     # of electrons  =     36.000000565
     EX              =    -91.042004939
     EC              =     -3.295965580
     EX+EC           =    -94.337970520
Transforming the Hamiltonian                       ... done (   0.0 sec)
Diagonalizing the Hamiltonian                      ... done (   0.0 sec)
Back transforming the eigenvectors                 ... done (   0.0 sec)
Now organizing SCF variables                       ... done
                      ------------------
                      INITIAL GUESS DONE (   0.4 sec)
                      ------------------
--------------
SCF ITERATIONS
--------------
ITER       Energy         Delta-E        Max-DP      RMS-DP      [F,P]     Damp
               ***  Starting incremental Fock matrix formation  ***
  0  -1417.6111271772   0.000000000000 0.04368033  0.00103102  3.6263544 0.7000
                      *** Initiating the SOSCF procedure ***
                      *** Re-Reading the Fockian *** 
                      *** Removing any level shift *** 
ITER      Energy       Delta-E        Grad      Rot      Max-DP    RMS-DP
  1  -1417.62104608  -0.0099189010  0.000600  0.000600  0.101959  0.002406
               *** Restarting incremental Fock matrix formation ***
  2  -1417.64415404  -0.0231079626  0.003503  0.000007  0.000062  0.000001
  3  -1417.64415410  -0.0000000608  0.000008  0.000000  0.000000  0.000000
                 **** Energy Check signals convergence ****
              ***Rediagonalizing the Fockian in SOSCF/NRSCF***

               *****************************************************
               *                     SUCCESS                       *
               *           SCF CONVERGED AFTER   4 CYCLES          *
               *****************************************************

Setting up the final grid:

General Integration Accuracy     IntAcc      ...  5.340
Radial Grid Type                 RadialGrid  ... Gauss-Chebyshev
Angular Grid (max. acc.)         AngularGrid ... Lebedev-590
Angular grid pruning method      GridPruning ... 3 (G Style)
Weight generation scheme         WeightScheme... Becke
Basis function cutoff            BFCut       ...    1.0000e-12
Integration weight cutoff        WCut        ...    1.0000e-14
Grids for H and He will be reduced by one unit

# of grid points (after initial pruning)     ...  24180 (   0.0 sec)
# of grid points (after weights+screening)   ...  24180 (   0.0 sec)
Grid point division into batches done        ...    0.4 sec
Reduced shell lists constructed in    0.4 sec

Total number of grid points                  ...    24180
Total number of batches                      ...      378
Average number of points per batch           ...       63
Average number of grid points per atom       ...    24180
Average number of shells per batch           ...     0.27 ( 1.14%)
Average number of basis functions per batch  ...     0.55 ( 0.65%)
Average number of large shells per batch     ...     0.14 (50.00%)
Average number of large basis fcns per batch ...     0.41 (75.00%)
Maximum spatial batch extension              ...  17.58, 17.58, 17.58 au
Average spatial batch extension              ...   0.77,  0.77,  0.77 au

Final grid set up in    0.5 sec
Final integration                            ... done (   0.0 sec)
Change in XC energy                          ...    -0.000079062
Integrated number of electrons               ...     1.999999884
Previous integrated no of electrons          ...     1.999998262

----------------
TOTAL SCF ENERGY
----------------

Total Energy       :        -1417.64423316 Eh          -38576.06075 eV

Components:
Nuclear Repulsion  :            0.00000000 Eh               0.00000 eV
Electronic Energy  :        -1417.64423316 Eh          -38576.06075 eV
One Electron Energy:        -1443.51819821 Eh          -39280.12714 eV
Two Electron Energy:           25.87396504 Eh             704.06638 eV

Virial components:
Potential Energy   :        -2597.98118605 Eh          -70694.66212 eV
Kinetic Energy     :         1180.33695288 Eh           32118.60137 eV
Virial Ratio       :            2.20105045


DFT components:
N(Alpha)           :        0.999999942192 electrons
N(Beta)            :        0.999999942192 electrons
N(Total)           :        1.999999884383 electrons
E(X)               :      -19.615706279318 Eh       
E(C)               :       -0.279930227872 Eh       
E(XC)              :      -19.895636507190 Eh       
DFET-embed. en.    :        0.000000000000 Eh       

---------------
SCF CONVERGENCE
---------------

  Last Energy change         ...   -1.5916e-12  Tolerance :   1.0000e-09
  Last MAX-Density change    ...    0.0000e+00  Tolerance :   1.0000e-08
  Last RMS-Density change    ...    0.0000e+00  Tolerance :   1.0000e-09
  Last Orbital Gradient      ...    3.1715e-10  Tolerance :   2.0000e-06
  Last Orbital Rotation      ...    0.0000e+00  Tolerance :   2.0000e-06

================================================================================
                                        WARNING
Number of found core electrons (2) does not match given number of chemical core electrons (18)
================================================================================
             **** THE GBW FILE WAS UPDATED (Kr_cc-pcvtz_68.5179945_.gbw) ****
             **** DENSITY FILE WAS UPDATED (Kr_cc-pcvtz_68.5179945_.scfp) ****
             **** ENERGY FILE WAS UPDATED (Kr_cc-pcvtz_68.5179945_.en.tmp) ****
             **** THE GBW FILE WAS UPDATED (Kr_cc-pcvtz_68.5179945_.gbw) ****
             **** DENSITY FILE WAS UPDATED (Kr_cc-pcvtz_68.5179945_.scfp) ****
----------------
ORBITAL ENERGIES
----------------

  NO   OCC          E(Eh)            E(eV) 
   0   2.0000    -689.216395    -18754.5316 
   1   0.0000    -159.456684     -4339.0370 
   2   0.0000    -154.634999     -4207.8322 
   3   0.0000    -154.634999     -4207.8322 
   4   0.0000    -154.634999     -4207.8322 
   5   0.0000     -67.954943     -1849.1480 
   6   0.0000     -67.541278     -1837.8916 
   7   0.0000     -67.541278     -1837.8916 
   8   0.0000     -67.541278     -1837.8916 
   9   0.0000     -65.656271     -1786.5980 
  10   0.0000     -65.656271     -1786.5980 
  11   0.0000     -65.656271     -1786.5980 
  12   0.0000     -65.656271     -1786.5980 
  13   0.0000     -65.656271     -1786.5980 
  14   0.0000     -37.676473     -1025.2289 
  15   0.0000     -37.676473     -1025.2289 
  16   0.0000     -37.676473     -1025.2289 
  17   0.0000     -37.518059     -1020.9183 
  18   0.0000     -36.783758     -1000.9369 
  19   0.0000     -36.783758     -1000.9369 
  20   0.0000     -36.783758     -1000.9369 
  21   0.0000     -36.783758     -1000.9369 
  22   0.0000     -36.783758     -1000.9369 
  23   0.0000     -36.088247      -982.0111 
  24   0.0000     -36.088247      -982.0111 
  25   0.0000     -36.088247      -982.0111 
  26   0.0000     -36.088247      -982.0111 
  27   0.0000     -36.088247      -982.0111 
  28   0.0000     -36.088247      -982.0111 
  29   0.0000     -36.088247      -982.0111 
  30   0.0000     -23.430200      -637.5682 
  31   0.0000     -23.430200      -637.5682 
  32   0.0000     -23.430200      -637.5682 
  33   0.0000     -23.103080      -628.6668 
  34   0.0000     -22.870781      -622.3456 
  35   0.0000     -22.870781      -622.3456 
  36   0.0000     -22.870781      -622.3456 
  37   0.0000     -22.870781      -622.3456 
  38   0.0000     -22.870781      -622.3456 
  39   0.0000     -20.607624      -560.7620 
  40   0.0000     -20.607624      -560.7620 
  41   0.0000     -20.607624      -560.7620 
  42   0.0000     -20.607624      -560.7620 
  43   0.0000     -20.607624      -560.7620 
  44   0.0000     -20.607624      -560.7620 
  45   0.0000     -20.607624      -560.7620 
  46   0.0000     -17.312433      -471.0953 
  47   0.0000     -17.312433      -471.0953 
  48   0.0000     -17.312433      -471.0953 
  49   0.0000     -17.312433      -471.0953 
  50   0.0000     -17.312433      -471.0953 
  51   0.0000     -17.312433      -471.0953 
  52   0.0000     -17.312433      -471.0953 
  53   0.0000     -17.312433      -471.0953 
  54   0.0000     -17.312433      -471.0953 
  55   0.0000     -16.009578      -435.6428 
  56   0.0000     -16.009578      -435.6428 
  57   0.0000     -16.009578      -435.6428 
  58   0.0000     -16.009578      -435.6428 
  59   0.0000     -16.009578      -435.6428 
  60   0.0000     -15.483690      -421.3326 
  61   0.0000     -15.483690      -421.3326 
  62   0.0000     -15.483690      -421.3326 
  63   0.0000     -15.483690      -421.3326 
  64   0.0000     -15.483690      -421.3326 
  65   0.0000     -15.483690      -421.3326 
  66   0.0000     -15.483690      -421.3326 
  67   0.0000     -15.249168      -414.9510 
  68   0.0000     -15.249168      -414.9510 
  69   0.0000     -15.249168      -414.9510 
  70   0.0000     -14.786818      -402.3698 
  71   0.0000     -11.401549      -310.2519 
  72   0.0000     -11.401549      -310.2519 
  73   0.0000     -11.401549      -310.2519 
  74   0.0000     -11.322696      -308.1062 
  75   0.0000     -11.322696      -308.1062 
  76   0.0000     -11.322696      -308.1062 
  77   0.0000     -11.322696      -308.1062 
  78   0.0000     -11.322696      -308.1062 
  79   0.0000      -9.498635      -258.4710 
  80   0.0000      -8.134136      -221.3411 
  81   0.0000      -8.134136      -221.3411 
  82   0.0000      -8.134136      -221.3411 
  83   0.0000      19.078132       519.1424 

                    ********************************
                    * MULLIKEN POPULATION ANALYSIS *
                    ********************************

-----------------------
MULLIKEN ATOMIC CHARGES
-----------------------
   0 Kr:   34.000000
Sum of atomic charges:   34.0000000

--------------------------------
MULLIKEN REDUCED ORBITAL CHARGES
--------------------------------
  0 Krs       :     2.000000  s :     2.000000
      pz      :     0.000000  p :     0.000000
      px      :     0.000000
      py      :     0.000000
      dz2     :     0.000000  d :     0.000000
      dxz     :     0.000000
      dyz     :     0.000000
      dx2y2   :     0.000000
      dxy     :     0.000000
      f0      :     0.000000  f :     0.000000
      f+1     :     0.000000
      f-1     :     0.000000
      f+2     :     0.000000
      f-2     :     0.000000
      f+3     :     0.000000
      f-3     :     0.000000
      g0      :     0.000000  g :     0.000000
      g+1     :     0.000000
      g-1     :     0.000000
      g+2     :     0.000000
      g-2     :     0.000000
      g+3     :     0.000000
      g-3     :     0.000000
      g+4     :     0.000000
      g-4     :     0.000000


                     *******************************
                     * LOEWDIN POPULATION ANALYSIS *
                     *******************************

----------------------
LOEWDIN ATOMIC CHARGES
----------------------
   0 Kr:   34.000000

-------------------------------
LOEWDIN REDUCED ORBITAL CHARGES
-------------------------------
  0 Krs       :     2.000000  s :     2.000000
      pz      :     0.000000  p :     0.000000
      px      :     0.000000
      py      :     0.000000
      dz2     :     0.000000  d :     0.000000
      dxz     :     0.000000
      dyz     :     0.000000
      dx2y2   :     0.000000
      dxy     :     0.000000
      f0      :     0.000000  f :     0.000000
      f+1     :     0.000000
      f-1     :     0.000000
      f+2     :     0.000000
      f-2     :     0.000000
      f+3     :     0.000000
      f-3     :     0.000000
      g0      :     0.000000  g :     0.000000
      g+1     :     0.000000
      g-1     :     0.000000
      g+2     :     0.000000
      g-2     :     0.000000
      g+3     :     0.000000
      g-3     :     0.000000
      g+4     :     0.000000
      g-4     :     0.000000


                      *****************************
                      * MAYER POPULATION ANALYSIS *
                      *****************************

  NA   - Mulliken gross atomic population
  ZA   - Total nuclear charge
  QA   - Mulliken gross atomic charge
  VA   - Mayer's total valence
  BVA  - Mayer's bonded valence
  FA   - Mayer's free valence

  ATOM       NA         ZA         QA         VA         BVA        FA
  0 Kr     2.0000    36.0000    34.0000    -0.0000     0.0000    -0.0000

  Mayer bond orders larger than 0.100000


--------------------------
ATOM BASIS FOR ELEMENT Kr
--------------------------
 NewGTO Kr
 S 76
    1   11718110.000000000000         0.000005776485
    2    1754604.000000000000         0.000045180364
    3     399281.299999999988         0.000237764245
    4     113084.600000000006         0.001003973710
    5      36885.930000000000         0.003645065137
    6      13312.209999999999         0.011776499178
    7       5189.988000000000         0.034176676185
    8       2151.660000000000         0.088139257345
    9        938.032500000000         0.192802975019
   10        426.557300000000         0.324902623581
   11        201.066600000000         0.344869972073
   12         97.097610000000         0.165951191168
   13         42.998720000000         0.018405840836
   14         21.177070000000        -0.001422768866
   15         10.426750000000         0.000677911766
   16          4.585008000000        -0.000349477338
   17          2.117603000000         0.000124916486
   18          0.349225000000         0.000037753455
   19   11718110.000000000000        -0.000000215298
   20    1754604.000000000000        -0.000001650621
   21     399281.299999999988        -0.000008683701
   22     113084.600000000006        -0.000036636604
   23      36885.930000000000        -0.000133688321
   24      13312.209999999999        -0.000433826197
   25       5189.988000000000        -0.001284996307
   26       2151.660000000000        -0.003432717068
   27        938.032500000000        -0.008213381291
   28        426.557300000000        -0.016328646334
   29        201.066600000000        -0.024190660700
   30         97.097610000000        -0.013044317681
   31         42.998720000000         0.039695850608
   32         21.177070000000         0.071147137547
   33         10.426750000000         0.029003380457
   34          4.585008000000         0.002060178055
   35          2.117603000000         0.000044076359
   36          0.349225000000        -0.000013791056
   37   11718110.000000000000         0.000000177115
   38    1754604.000000000000         0.000001391621
   39     399281.299999999988         0.000007388241
   40     113084.600000000006         0.000031071095
   41      36885.930000000000         0.000113632157
   42      13312.209999999999         0.000368324051
   43       5189.988000000000         0.001096065779
   44       2151.660000000000         0.002934169028
   45        938.032500000000         0.007124718541
   46        426.557300000000         0.014430828517
   47        201.066600000000         0.022553263207
   48         97.097610000000         0.012864167216
   49         42.998720000000        -0.048606275403
   50         21.177070000000        -0.129573551994
   51         10.426750000000        -0.046986352981
   52          4.585008000000         0.168363815597
   53          2.117603000000         0.152418524206
   54          0.349225000000        -0.002693494550
   55   11718110.000000000000         0.000000019839
   56    1754604.000000000000         0.000000178551
   57     399281.299999999988         0.000000922513
   58     113084.600000000006         0.000003878522
   59      36885.930000000000         0.000014184875
   60      13312.209999999999         0.000046016529
   61       5189.988000000000         0.000136898927
   62       2151.660000000000         0.000367031171
   63        938.032500000000         0.000891970756
   64        426.557300000000         0.001815475581
   65        201.066600000000         0.002852439570
   66         97.097610000000         0.001659769295
   67         42.998720000000        -0.006471576616
   68         21.177070000000        -0.018196536716
   69         10.426750000000        -0.006866104622
   70          4.585008000000         0.031306258079
   71          2.117603000000         0.049909940397
   72          0.349225000000        -0.071138350397
   73          0.707057000000         0.110567333413
   74          0.144821000000         0.018855248812
   75          2.211600000000        -0.385543178807
   76         10.467400000000        -0.021247953370
 S 76
    1   11718110.000000000000        -0.000000639951
    2    1754604.000000000000        -0.000005005328
    3     399281.299999999988        -0.000026340822
    4     113084.600000000006        -0.000111225694
    5      36885.930000000000        -0.000403820234
    6      13312.209999999999        -0.001304664929
    7       5189.988000000000        -0.003786278940
    8       2151.660000000000        -0.009764548549
    9        938.032500000000        -0.021359767107
   10        426.557300000000        -0.035994488008
   11        201.066600000000        -0.038206579982
   12         97.097610000000        -0.018384979766
   13         42.998720000000        -0.002039099623
   14         21.177070000000         0.000157622109
   15         10.426750000000        -0.000075102770
   16          4.585008000000         0.000038717009
   17          2.117603000000        -0.000013838931
   18          0.349225000000        -0.000004182534
   19   11718110.000000000000         0.000001984717
   20    1754604.000000000000         0.000015216163
   21     399281.299999999988         0.000080050247
   22     113084.600000000006         0.000337732652
   23      36885.930000000000         0.001232398907
   24      13312.209999999999         0.003999204471
   25       5189.988000000000         0.011845672311
   26       2151.660000000000         0.031644325601
   27        938.032500000000         0.075714632670
   28        426.557300000000         0.150524785762
   29        201.066600000000         0.223000360518
   30         97.097610000000         0.120248371126
   31         42.998720000000        -0.365934155605
   32         21.177070000000        -0.655866225381
   33         10.426750000000        -0.267366169875
   34          4.585008000000        -0.018991645362
   35          2.117603000000        -0.000406315646
   36          0.349225000000         0.000127132141
   37   11718110.000000000000         0.000000206963
   38    1754604.000000000000         0.000001626136
   39     399281.299999999988         0.000008633305
   40     113084.600000000006         0.000036307185
   41      36885.930000000000         0.000132781407
   42      13312.209999999999         0.000430393886
   43       5189.988000000000         0.001280774388
   44       2151.660000000000         0.003428634130
   45        938.032500000000         0.008325373530
   46        426.557300000000         0.016862706514
   47        201.066600000000         0.026353930956
   48         97.097610000000         0.015032032017
   49         42.998720000000        -0.056797387333
   50         21.177070000000        -0.151409240058
   51         10.426750000000        -0.054904476171
   52          4.585008000000         0.196736424836
   53          2.117603000000         0.178104038714
   54          0.349225000000        -0.003147401276
   55   11718110.000000000000         0.000000026745
   56    1754604.000000000000         0.000000240704
   57     399281.299999999988         0.000001243637
   58     113084.600000000006         0.000005228626
   59      36885.930000000000         0.000019122597
   60      13312.209999999999         0.000062034774
   61       5189.988000000000         0.000184553117
   62       2151.660000000000         0.000494793848
   63        938.032500000000         0.001202463653
   64        426.557300000000         0.002447438310
   65        201.066600000000         0.003845366996
   66         97.097610000000         0.002237531036
   67         42.998720000000        -0.008724317034
   68         21.177070000000        -0.024530707841
   69         10.426750000000        -0.009256179301
   70          4.585008000000         0.042203892010
   71          2.117603000000         0.067283471868
   72          0.349225000000        -0.095901440867
   73          0.707057000000         0.148622930508
   74          0.144821000000         0.025058543231
   75          2.211600000000        -0.478873971303
   76         10.467400000000         0.343961335983
 S 76
    1   11718110.000000000000        -0.000000824172
    2    1754604.000000000000        -0.000006446199
    3     399281.299999999988        -0.000033923490
    4     113084.600000000006        -0.000143243960
    5      36885.930000000000        -0.000520066971
    6      13312.209999999999        -0.001680235614
    7       5189.988000000000        -0.004876225748
    8       2151.660000000000        -0.012575445128
    9        938.032500000000        -0.027508550741
   10        426.557300000000        -0.046356132760
   11        201.066600000000        -0.049205014211
   12         97.097610000000        -0.023677418682
   13         42.998720000000        -0.002626090217
   14         21.177070000000         0.000202996399
   15         10.426750000000        -0.000096722419
   16          4.585008000000         0.000049862379
   17          2.117603000000        -0.000017822710
   18          0.349225000000        -0.000005386550
   19   11718110.000000000000        -0.000000105282
   20    1754604.000000000000        -0.000000807160
   21     399281.299999999988        -0.000004246366
   22     113084.600000000006        -0.000017915453
   23      36885.930000000000        -0.000065374150
   24      13312.209999999999        -0.000212142831
   25       5189.988000000000        -0.000628368586
   26       2151.660000000000        -0.001678613049
   27        938.032500000000        -0.004016377913
   28        426.557300000000        -0.007984776570
   29        201.066600000000        -0.011829334582
   30         97.097610000000        -0.006378726078
   31         42.998720000000         0.019411437505
   32         21.177070000000         0.034791248782
   33         10.426750000000         0.014182774737
   34          4.585008000000         0.001007435713
   35          2.117603000000         0.000021553524
   36          0.349225000000        -0.000006743884
   37   11718110.000000000000         0.000001418318
   38    1754604.000000000000         0.000011143923
   39     399281.299999999988         0.000059164102
   40     113084.600000000006         0.000248813416
   41      36885.930000000000         0.000909951997
   42      13312.209999999999         0.002949492588
   43       5189.988000000000         0.008777156656
   44       2151.660000000000         0.023496455864
   45        938.032500000000         0.057053848354
   46        426.557300000000         0.115560256464
   47        201.066600000000         0.180603690018
   48         97.097610000000         0.103014630162
   49         42.998720000000        -0.389232928970
   50         21.177070000000        -1.037608677935
   51         10.426750000000        -0.376260794328
   52          4.585008000000         1.348236221238
   53          2.117603000000         1.220548336906
   54          0.349225000000        -0.021569164973
   55   11718110.000000000000         0.000000044513
   56    1754604.000000000000         0.000000400617
   57     399281.299999999988         0.000002069855
   58     113084.600000000006         0.000008702292
   59      36885.930000000000         0.000031826798
   60      13312.209999999999         0.000103247914
   61       5189.988000000000         0.000307161987
   62       2151.660000000000         0.000823512838
   63        938.032500000000         0.002001326934
   64        426.557300000000         0.004073407289
   65        201.066600000000         0.006400057517
   66         97.097610000000         0.003724046974
   67         42.998720000000        -0.014520364601
   68         21.177070000000        -0.040827817281
   69         10.426750000000        -0.015405572463
   70          4.585008000000         0.070242277669
   71          2.117603000000         0.111983613083
   72          0.349225000000        -0.159614085750
   73          0.707057000000         0.277450963710
   74          0.144821000000         0.045321998199
   75          2.211600000000        -1.938491800161
   76         10.467400000000         1.104584761244
 S 76
    1   11718110.000000000000        -0.000000470180
    2    1754604.000000000000        -0.000003677482
    3     399281.299999999988        -0.000019352961
    4     113084.600000000006        -0.000081719031
    5      36885.930000000000        -0.000296692222
    6      13312.209999999999        -0.000958555083
    7       5189.988000000000        -0.002781830676
    8       2151.660000000000        -0.007174146735
    9        938.032500000000        -0.015693311645
   10        426.557300000000        -0.026445640300
   11        201.066600000000        -0.028070894385
   12         97.097610000000        -0.013507694892
   13         42.998720000000        -0.001498154249
   14         21.177070000000         0.000115807109
   15         10.426750000000        -0.000055179027
   16          4.585008000000         0.000028445914
   17          2.117603000000        -0.000010167651
   18          0.349225000000        -0.000003072965
   19   11718110.000000000000        -0.000000948461
   20    1754604.000000000000        -0.000007271535
   21     399281.299999999988        -0.000038254598
   22     113084.600000000006        -0.000161396464
   23      36885.930000000000        -0.000588941651
   24      13312.209999999999        -0.001911149117
   25       5189.988000000000        -0.005660837384
   26       2151.660000000000        -0.015122263781
   27        938.032500000000        -0.036182684433
   28        426.557300000000        -0.071933134065
   29        201.066600000000        -0.106567929983
   30         97.097610000000        -0.057464570752
   31         42.998720000000         0.174873463801
   32         21.177070000000         0.313426874387
   33         10.426750000000         0.127769565954
   34          4.585008000000         0.009075771575
   35          2.117603000000         0.000194171064
   36          0.349225000000        -0.000060754203
   37   11718110.000000000000         0.000001585674
   38    1754604.000000000000         0.000012458866
   39     399281.299999999988         0.000066145254
   40     113084.600000000006         0.000278172508
   41      36885.930000000000         0.001017323072
   42      13312.209999999999         0.003297522147
   43       5189.988000000000         0.009812829696
   44       2151.660000000000         0.026268953479
   45        938.032500000000         0.063785998062
   46        426.557300000000         0.129195952728
   47        201.066600000000         0.201914278420
   48         97.097610000000         0.115169987467
   49         42.998720000000        -0.435161020145
   50         21.177070000000        -1.160042784654
   51         10.426750000000        -0.420658220088
   52          4.585008000000         1.507323265231
   53          2.117603000000         1.364568667994
   54          0.349225000000        -0.024114249167
   55   11718110.000000000000         0.000000083409
   56    1754604.000000000000         0.000000750679
   57     399281.299999999988         0.000003878507
   58     113084.600000000006         0.000016306413
   59      36885.930000000000         0.000059637264
   60      13312.209999999999         0.000193466620
   61       5189.988000000000         0.000575562152
   62       2151.660000000000         0.001543103773
   63        938.032500000000         0.003750099576
   64        426.557300000000         0.007632777376
   65        201.066600000000         0.011992469878
   66         97.097610000000         0.006978143720
   67         42.998720000000        -0.027208354714
   68         21.177070000000        -0.076503432614
   69         10.426750000000        -0.028867063030
   70          4.585008000000         0.131620441995
   71          2.117603000000         0.209835630896
   72          0.349225000000        -0.299085923922
   73          0.707057000000         0.520077919412
   74          0.144821000000         0.078455183062
   75          2.211600000000        -4.231686537360
   76         10.467400000000         1.623248161171
 S 76
    1   11718110.000000000000        -0.000000775936
    2    1754604.000000000000        -0.000006068929
    3     399281.299999999988        -0.000031938085
    4     113084.600000000006        -0.000134860469
    5      36885.930000000000        -0.000489629549
    6      13312.209999999999        -0.001581898201
    7       5189.988000000000        -0.004590839922
    8       2151.660000000000        -0.011839455047
    9        938.032500000000        -0.025898586219
   10        426.557300000000        -0.043643095284
   11        201.066600000000        -0.046325243194
   12         97.097610000000        -0.022291674868
   13         42.998720000000        -0.002472395749
   14         21.177070000000         0.000191115838
   15         10.426750000000        -0.000091061646
   16          4.585008000000         0.000046944135
   17          2.117603000000        -0.000016779619
   18          0.349225000000        -0.000005071297
   19   11718110.000000000000         0.000000098414
   20    1754604.000000000000         0.000000754505
   21     399281.299999999988         0.000003969355
   22     113084.600000000006         0.000016746740
   23      36885.930000000000         0.000061109472
   24      13312.209999999999         0.000198303709
   25       5189.988000000000         0.000587377009
   26       2151.660000000000         0.001569108855
   27        938.032500000000         0.003754369807
   28        426.557300000000         0.007463890280
   29        201.066600000000         0.011057648844
   30         97.097610000000         0.005962610369
   31         42.998720000000        -0.018145133861
   32         21.177070000000        -0.032521644323
   33         10.426750000000        -0.013257562509
   34          4.585008000000        -0.000941715721
   35          2.117603000000        -0.000020147482
   36          0.349225000000         0.000006303948
   37   11718110.000000000000         0.000000292053
   38    1754604.000000000000         0.000002294703
   39     399281.299999999988         0.000012182789
   40     113084.600000000006         0.000051234468
   41      36885.930000000000         0.000187372961
   42      13312.209999999999         0.000607345399
   43       5189.988000000000         0.001807350097
   44       2151.660000000000         0.004838277753
   45        938.032500000000         0.011748255431
   46        426.557300000000         0.023795615015
   47        201.066600000000         0.037189047597
   48         97.097610000000         0.021212279682
   49         42.998720000000        -0.080148982120
   50         21.177070000000        -0.213659413645
   51         10.426750000000        -0.077477822230
   52          4.585008000000         0.277622350902
   53          2.117603000000         0.251329472790
   54          0.349225000000        -0.004441419235
   55   11718110.000000000000         0.000000382140
   56    1754604.000000000000         0.000003439259
   57     399281.299999999988         0.000017769507
   58     113084.600000000006         0.000074708358
   59      36885.930000000000         0.000273230056
   60      13312.209999999999         0.000886373588
   61       5189.988000000000         0.002636956649
   62       2151.660000000000         0.007069779940
   63        938.032500000000         0.017181202724
   64        426.557300000000         0.034969816881
   65        201.066600000000         0.054943889348
   66         97.097610000000         0.031970591570
   67         42.998720000000        -0.124655958776
   68         21.177070000000        -0.350502955519
   69         10.426750000000        -0.132255384672
   70          4.585008000000         0.603023319999
   71          2.117603000000         0.961368742415
   72          0.349225000000        -1.370271851961
   73          0.707057000000         3.430149004820
   74          0.144821000000         0.290381997879
   75          2.211600000000        -4.486086431870
   76         10.467400000000         1.424184154907
 S 76
    1   11718110.000000000000         0.000000933594
    2    1754604.000000000000         0.000007302038
    3     399281.299999999988         0.000038427394
    4     113084.600000000006         0.000162261962
    5      36885.930000000000         0.000589114450
    6      13312.209999999999         0.001903314640
    7       5189.988000000000         0.005523625243
    8       2151.660000000000         0.014245043144
    9        938.032500000000         0.031160765137
   10        426.557300000000         0.052510674926
   11        201.066600000000         0.055737792436
   12         97.097610000000         0.026820987030
   13         42.998720000000         0.002974747062
   14         21.177070000000        -0.000229947523
   15         10.426750000000         0.000109563918
   16          4.585008000000        -0.000056482434
   17          2.117603000000         0.000020188969
   18          0.349225000000         0.000006101703
   19   11718110.000000000000        -0.000001202466
   20    1754604.000000000000        -0.000009218908
   21     399281.299999999988        -0.000048499470
   22     113084.600000000006        -0.000204619666
   23      36885.930000000000        -0.000746664711
   24      13312.209999999999        -0.002422969409
   25       5189.988000000000        -0.007176852758
   26       2151.660000000000        -0.019172121219
   27        938.032500000000        -0.045872682955
   28        426.557300000000        -0.091197375337
   29        201.066600000000        -0.135107633440
   30         97.097610000000        -0.072854020550
   31         42.998720000000         0.221705909550
   32         21.177070000000         0.397364978957
   33         10.426750000000         0.161987229033
   34          4.585008000000         0.011506332340
   35          2.117603000000         0.000246171554
   36          0.349225000000        -0.000077024641
   37   11718110.000000000000         0.000001814485
   38    1754604.000000000000         0.000014256668
   39     399281.299999999988         0.000075689949
   40     113084.600000000006         0.000318312524
   41      36885.930000000000         0.001164121781
   42      13312.209999999999         0.003773351316
   43       5189.988000000000         0.011228811269
   44       2151.660000000000         0.030059537359
   45        938.032500000000         0.072990254191
   46        426.557300000000         0.147838800309
   47        201.066600000000         0.231050308130
   48         97.097610000000         0.131788902200
   49         42.998720000000        -0.497954322882
   50         21.177070000000        -1.327435805610
   51         10.426750000000        -0.481358783190
   52          4.585008000000         1.724828514401
   53          2.117603000000         1.561474570655
   54          0.349225000000        -0.027593911357
   55   11718110.000000000000        -0.000001325148
   56    1754604.000000000000        -0.000011926331
   57     399281.299999999988        -0.000061619377
   58     113084.600000000006        -0.000259066411
   59      36885.930000000000        -0.000947480735
   60      13312.209999999999        -0.003073680512
   61       5189.988000000000        -0.009144182958
   62       2151.660000000000        -0.024515898386
   63        938.032500000000        -0.059579311336
   64        426.557300000000        -0.121264945231
   65        201.066600000000        -0.190529099861
   66         97.097610000000        -0.110864522081
   67         42.998720000000         0.432269864759
   68         21.177070000000         1.215440213747
   69         10.426750000000         0.458622418109
   70          4.585008000000        -2.091105884880
   71          2.117603000000        -3.333741446029
   72          0.349225000000         4.751696059653
   73          0.707057000000        -5.052647493314
   74          0.144821000000        -0.764946123014
   75          2.211600000000         3.972374115091
   76         10.467400000000        -0.862234203573
 S 76
    1   11718110.000000000000         0.000000736634
    2    1754604.000000000000         0.000005761526
    3     399281.299999999988         0.000030320362
    4     113084.600000000006         0.000128029537
    5      36885.930000000000         0.000464828905
    6      13312.209999999999         0.001501772125
    7       5189.988000000000         0.004358305373
    8       2151.660000000000         0.011239764708
    9        938.032500000000         0.024586774832
   10        426.557300000000         0.041432491628
   11        201.066600000000         0.043978783776
   12         97.097610000000         0.021162560225
   13         42.998720000000         0.002347164323
   14         21.177070000000        -0.000181435467
   15         10.426750000000         0.000086449205
   16          4.585008000000        -0.000044566328
   17          2.117603000000         0.000015929700
   18          0.349225000000         0.000004814426
   19   11718110.000000000000        -0.000001312873
   20    1754604.000000000000        -0.000010065362
   21     399281.299999999988        -0.000052952558
   22     113084.600000000006        -0.000223407281
   23      36885.930000000000        -0.000815221411
   24      13312.209999999999        -0.002645439793
   25       5189.988000000000        -0.007835811630
   26       2151.660000000000        -0.020932452633
   27        938.032500000000        -0.050084586475
   28        426.557300000000        -0.099570867391
   29        201.066600000000        -0.147512844564
   30         97.097610000000        -0.079543276243
   31         42.998720000000         0.242062336092
   32         21.177070000000         0.433849937887
   33         10.426750000000         0.176860450660
   34          4.585008000000         0.012562812113
   35          2.117603000000         0.000268774349
   36          0.349225000000        -0.000084096832
   37   11718110.000000000000         0.000002345275
   38    1754604.000000000000         0.000018427157
   39     399281.299999999988         0.000097831453
   40     113084.600000000006         0.000411428166
   41      36885.930000000000         0.001504661150
   42      13312.209999999999         0.004877165967
   43       5189.988000000000         0.014513564094
   44       2151.660000000000         0.038852823475
   45        938.032500000000         0.094342019559
   46        426.557300000000         0.191085935306
   47        201.066600000000         0.298639221500
   48         97.097610000000         0.170340976707
   49         42.998720000000        -0.643620398222
   50         21.177070000000        -1.715749261651
   51         10.426750000000        -0.622170182059
   52          4.585008000000         2.229390858338
   53          2.117603000000         2.018251150350
   54          0.349225000000        -0.035665930387
   55   11718110.000000000000        -0.000001517852
   56    1754604.000000000000        -0.000013660664
   57     399281.299999999988        -0.000070580095
   58     113084.600000000006        -0.000296739971
   59      36885.930000000000        -0.001085263833
   60      13312.209999999999        -0.003520656588
   61       5189.988000000000        -0.010473934378
   62       2151.660000000000        -0.028081011949
   63        938.032500000000        -0.068243363029
   64        426.557300000000        -0.138899351041
   65        201.066600000000        -0.218235931866
   66         97.097610000000        -0.126986493428
   67         42.998720000000         0.495130753372
   68         21.177070000000         1.392190105704
   69         10.426750000000         0.525315507521
   70          4.585008000000        -2.395195493767
   71          2.117603000000        -3.818535707183
   72          0.349225000000         5.442689952779
   73          0.707057000000        -3.568243876105
   74          0.144821000000        -3.092647964596
   75          2.211600000000         2.873640078478
   76         10.467400000000        -0.420435753475
 S 76
    1   11718110.000000000000        -0.000018420699
    2    1754604.000000000000        -0.000144076182
    3     399281.299999999988        -0.000758209133
    4     113084.600000000006        -0.003201583294
    5      36885.930000000000        -0.011623790083
    6      13312.209999999999        -0.037554213499
    7       5189.988000000000        -0.108986395258
    8       2151.660000000000        -0.281068290162
    9        938.032500000000        -0.614831621673
   10        426.557300000000        -1.036085708338
   11        201.066600000000        -1.099759815301
   12         97.097610000000        -0.529203659716
   13         42.998720000000        -0.058694597262
   14         21.177070000000         0.004537083980
   15         10.426750000000        -0.002161800618
   16          4.585008000000         0.001114452296
   17          2.117603000000        -0.000398347618
   18          0.349225000000        -0.000120392426
   19   11718110.000000000000         0.000025909427
   20    1754604.000000000000         0.000198638939
   21     399281.299999999988         0.001045013551
   22     113084.600000000006         0.004408920808
   23      36885.930000000000         0.016088314681
   24      13312.209999999999         0.052207495166
   25       5189.988000000000         0.154638974930
   26       2151.660000000000         0.413099902201
   27        938.032500000000         0.988414407869
   28        426.557300000000         1.965021314144
   29        201.066600000000         2.911151537342
   30         97.097610000000         1.569778764715
   31         42.998720000000        -4.777076490727
   32         21.177070000000        -8.561986024924
   33         10.426750000000        -3.490323668791
   34          4.585008000000        -0.247925866418
   35          2.117603000000        -0.005304235448
   36          0.349225000000         0.001659642733
   37   11718110.000000000000        -0.000009546687
   38    1754604.000000000000        -0.000075009683
   39     399281.299999999988        -0.000398233224
   40     113084.600000000006        -0.001674761641
   41      36885.930000000000        -0.006124881539
   42      13312.209999999999        -0.019853017269
   43       5189.988000000000        -0.059078989839
   44       2151.660000000000        -0.158154506261
   45        938.032500000000        -0.384029117799
   46        426.557300000000        -0.777835406773
   47        201.066600000000        -1.215642375569
   48         97.097610000000        -0.693390869898
   49         42.998720000000         2.619924556225
   50         21.177070000000         6.984137910086
   51         10.426750000000         2.532609194225
   52          4.585008000000        -9.074970077586
   53          2.117603000000        -8.215503678943
   54          0.349225000000         0.145181922606
   55   11718110.000000000000        -0.000000895125
   56    1754604.000000000000        -0.000008056129
   57     399281.299999999988        -0.000041623332
   58     113084.600000000006        -0.000174997018
   59      36885.930000000000        -0.000640014671
   60      13312.209999999999        -0.002076243398
   61       5189.988000000000        -0.006176812919
   62       2151.660000000000        -0.016560267721
   63        938.032500000000        -0.040245286175
   64        426.557300000000        -0.081913374196
   65        201.066600000000        -0.128700684459
   66         97.097610000000        -0.074887982384
   67         42.998720000000         0.291994385667
   68         21.177070000000         0.821018876081
   69         10.426750000000         0.309795297212
   70          4.585008000000        -1.412523120390
   71          2.117603000000        -2.251912207780
   72          0.349225000000         3.209727730126
   73          0.707057000000        -4.845819774848
   74          0.144821000000        -0.900418740275
   75          2.211600000000        18.805521161065
   76         10.467400000000         7.370801341752
 P 37
    1       9366.308999999999         0.000577522872
    2       2219.554000000000         0.005015344572
    3        719.452900000000         0.027205681556
    4        273.464500000000         0.105679724181
    5        114.752300000000         0.292158324254
    6         51.155570000000         0.525320045896
    7         23.682680000000         0.494988015047
    8         10.875480000000         0.159814269429
    9          4.955131000000         0.006990060571
   10          2.217267000000         0.002394037734
   11          0.322154000000         0.000300159016
   12       9366.308999999999        -0.000051877162
   13       2219.554000000000        -0.000453171137
   14        719.452900000000        -0.002481326873
   15        273.464500000000        -0.009909925310
   16        114.752300000000        -0.028657155289
   17         51.155570000000        -0.055288567733
   18         23.682680000000        -0.048624614532
   19         10.875480000000         0.053917381961
   20          4.955131000000         0.164012813852
   21          2.217267000000         0.118032215385
   22          0.322154000000        -0.001441702519
   23       9366.308999999999        -0.000001231131
   24       2219.554000000000        -0.000010831839
   25        719.452900000000        -0.000058988608
   26        273.464500000000        -0.000238152502
   27        114.752300000000        -0.000687200902
   28         51.155570000000        -0.001356199032
   29         23.682680000000        -0.001138476434
   30         10.875480000000         0.001624881468
   31          4.955131000000         0.005292869618
   32          2.217267000000         0.003850227230
   33          0.322154000000        -0.015229514889
   34          0.806410000000         0.026445464031
   35          0.117619000000         0.005135597238
   36          2.691200000000        -0.257997934099
   37         13.832700000000        -0.424647057927
 P 37
    1       9366.308999999999         0.000206794672
    2       2219.554000000000         0.001795853616
    3        719.452900000000         0.009741588218
    4        273.464500000000         0.037840932376
    5        114.752300000000         0.104613666215
    6         51.155570000000         0.188102310888
    7         23.682680000000         0.177241265053
    8         10.875480000000         0.057224988133
    9          4.955131000000         0.002502943790
   10          2.217267000000         0.000857237476
   11          0.322154000000         0.000107478488
   12       9366.308999999999         0.000121281893
   13       2219.554000000000         0.001059453743
   14        719.452900000000         0.005801011646
   15        273.464500000000         0.023168085094
   16        114.752300000000         0.066996611124
   17         51.155570000000         0.129257305363
   18         23.682680000000         0.113677870604
   19         10.875480000000        -0.126051655708
   20          4.955131000000        -0.383440107650
   21          2.217267000000        -0.275943594349
   22          0.322154000000         0.003370508414
   23       9366.308999999999        -0.000002450529
   24       2219.554000000000        -0.000021560446
   25        719.452900000000        -0.000117415031
   26        273.464500000000        -0.000474035318
   27        114.752300000000        -0.001367852510
   28         51.155570000000        -0.002699472953
   29         23.682680000000        -0.002266102739
   30         10.875480000000         0.003234277175
   31          4.955131000000         0.010535296104
   32          2.217267000000         0.007663760278
   33          0.322154000000        -0.030313886501
   34          0.806410000000         0.057741308964
   35          0.117619000000         0.007777354430
   36          2.691200000000         0.277073658759
   37         13.832700000000        -0.962919919380
 P 37
    1       9366.308999999999         0.000328741981
    2       2219.554000000000         0.002854872748
    3        719.452900000000         0.015486225869
    4        273.464500000000         0.060155819843
    5        114.752300000000         0.166304593012
    6         51.155570000000         0.299026689235
    7         23.682680000000         0.281760858941
    8         10.875480000000         0.090970699202
    9          4.955131000000         0.003978935672
   10          2.217267000000         0.001362752446
   11          0.322154000000         0.000170858808
   12       9366.308999999999        -0.000081263047
   13       2219.554000000000        -0.000709870515
   14        719.452900000000        -0.003886877698
   15        273.464500000000        -0.015523415354
   16        114.752300000000        -0.044890038067
   17         51.155570000000        -0.086606848628
   18         23.682680000000        -0.076168090493
   19         10.875480000000         0.084458952897
   20          4.955131000000         0.256918084961
   21          2.217267000000         0.184891716863
   22          0.322154000000        -0.002258356780
   23       9366.308999999999         0.000001973792
   24       2219.554000000000         0.000017365984
   25        719.452900000000         0.000094572606
   26        273.464500000000         0.000381814448
   27        114.752300000000         0.001101744598
   28         51.155570000000         0.002174305873
   29         23.682680000000         0.001825245365
   30         10.875480000000        -0.002605066981
   31          4.955131000000        -0.008485714281
   32          2.217267000000        -0.006172819387
   33          0.322154000000         0.024416492623
   34          0.806410000000        -0.043750476158
   35          0.117619000000        -0.006521049241
   36          2.691200000000         0.785928083166
   37         13.832700000000        -1.322920459466
 P 37
    1       9366.308999999999         0.000690912355
    2       2219.554000000000         0.006000045540
    3        719.452900000000         0.032547181139
    4        273.464500000000         0.126428632875
    5        114.752300000000         0.349520003055
    6         51.155570000000         0.628460149187
    7         23.682680000000         0.592172798681
    8         10.875480000000         0.191191827519
    9          4.955131000000         0.008362472636
   10          2.217267000000         0.002864077476
   11          0.322154000000         0.000359091531
   12       9366.308999999999        -0.000486077807
   13       2219.554000000000        -0.004246115725
   14        719.452900000000        -0.023249497144
   15        273.464500000000        -0.092853860853
   16        114.752300000000        -0.268511358696
   17         51.155570000000        -0.518041944243
   18         23.682680000000        -0.455602141323
   19         10.875480000000         0.505194229561
   20          4.955131000000         1.536764659528
   21          2.217267000000         1.105936377959
   22          0.322154000000        -0.013508441375
   23       9366.308999999999         0.000036299886
   24       2219.554000000000         0.000319376677
   25        719.452900000000         0.001739278648
   26        273.464500000000         0.007021924687
   27        114.752300000000         0.020262113284
   28         51.155570000000         0.039987517956
   29         23.682680000000         0.033567968842
   30         10.875480000000        -0.047909617493
   31          4.955131000000        -0.156060219687
   32          2.217267000000        -0.113523920051
   33          0.322154000000         0.449042128508
   34          0.806410000000        -1.474643071507
   35          0.117619000000        -0.111362183371
   36          2.691200000000        -1.142443320654
   37         13.832700000000        -1.668787166617
 P 37
    1       9366.308999999999         0.001194287016
    2       2219.554000000000         0.010371469588
    3        719.452900000000         0.056259922882
    4        273.464500000000         0.218540128109
    5        114.752300000000         0.604168094735
    6         51.155570000000         1.086334308860
    7         23.682680000000         1.023609259574
    8         10.875480000000         0.330487529045
    9          4.955131000000         0.014455078725
   10          2.217267000000         0.004950744498
   11          0.322154000000         0.000620713105
   12       9366.308999999999        -0.000993470988
   13       2219.554000000000        -0.008678431162
   14        719.452900000000        -0.047518526007
   15        273.464500000000        -0.189779528328
   16        114.752300000000        -0.548797417103
   17         51.155570000000        -1.058800947314
   18         23.682680000000        -0.931183245280
   19         10.875480000000         1.032542122856
   20          4.955131000000         3.140919177278
   21          2.217267000000         2.260370029232
   22          0.322154000000        -0.027609251883
   23       9366.308999999999         0.000104920146
   24       2219.554000000000         0.000923117164
   25        719.452900000000         0.005027160983
   26        273.464500000000         0.020295969172
   27        114.752300000000         0.058565029521
   28         51.155570000000         0.115578771907
   29         23.682680000000         0.097023891766
   30         10.875480000000        -0.138476580577
   31          4.955131000000        -0.451071970874
   32          2.217267000000        -0.328126273700
   33          0.322154000000         1.297898454312
   34          0.806410000000        -0.311472650856
   35          0.117619000000        -0.264891430037
   36          2.691200000000        -4.221460657189
   37         13.832700000000        -2.320929020579
 P 37
    1       9366.308999999999         0.001385457220
    2       2219.554000000000         0.012031636643
    3        719.452900000000         0.065265480841
    4        273.464500000000         0.253521971120
    5        114.752300000000         0.700877626413
    6         51.155570000000         1.260224461568
    7         23.682680000000         1.187458977851
    8         10.875480000000         0.383388856403
    9          4.955131000000         0.016768911425
   10          2.217267000000         0.005743212995
   11          0.322154000000         0.000720071006
   12       9366.308999999999        -0.000920494409
   13       2219.554000000000        -0.008040946800
   14        719.452900000000        -0.044027996825
   15        273.464500000000        -0.175839050003
   16        114.752300000000        -0.508484857759
   17         51.155570000000        -0.981025479187
   18         23.682680000000        -0.862782085461
   19         10.875480000000         0.956695527545
   20          4.955131000000         2.910199267195
   21          2.217267000000         2.094331891838
   22          0.322154000000        -0.025581181833
   23       9366.308999999999        -0.000125405644
   24       2219.554000000000        -0.001103354378
   25        719.452900000000        -0.006008706479
   26        273.464500000000        -0.024258726120
   27        114.752300000000        -0.069999761990
   28         51.155570000000        -0.138145350402
   29         23.682680000000        -0.115967658284
   30         10.875480000000         0.165513921205
   31          4.955131000000         0.539143083501
   32          2.217267000000         0.392192426937
   33          0.322154000000        -1.551311143039
   34          0.806410000000         2.132205795176
   35          0.117619000000         0.020252038101
   36          2.691200000000        -6.203456264532
   37         13.832700000000        -2.665415307580
 P 37
    1       9366.308999999999         0.000418662719
    2       2219.554000000000         0.003635765611
    3        719.452900000000         0.019722170632
    4        273.464500000000         0.076610231150
    5        114.752300000000         0.211793860431
    6         51.155570000000         0.380819409360
    7         23.682680000000         0.358830859403
    8         10.875480000000         0.115853899288
    9          4.955131000000         0.005067293279
   10          2.217267000000         0.001735505894
   11          0.322154000000         0.000217593789
   12       9366.308999999999        -0.000142785532
   13       2219.554000000000        -0.001247298031
   14        719.452900000000        -0.006829548202
   15        273.464500000000        -0.027275855236
   16        114.752300000000        -0.078875308811
   17         51.155570000000        -0.152175008639
   18         23.682680000000        -0.133833293930
   19         10.875480000000         0.148400987801
   20          4.955131000000         0.451425175005
   21          2.217267000000         0.324869211345
   22          0.322154000000        -0.003968109544
   23       9366.308999999999        -0.000170869098
   24       2219.554000000000        -0.001503354724
   25        719.452900000000        -0.008187049826
   26        273.464500000000        -0.033053270310
   27        114.752300000000        -0.095376857104
   28         51.155570000000        -0.188227344927
   29         23.682680000000        -0.158009548296
   30         10.875480000000         0.225517875529
   31          4.955131000000         0.734599252510
   32          2.217267000000         0.534374403539
   33          0.322154000000        -2.113709775682
   34          0.806410000000         1.399349023202
   35          0.117619000000         1.755272006418
   36          2.691200000000        -2.283717774799
   37         13.832700000000        -0.847603549735
 D 11
    1        446.161300000000         0.003978886482
    2        133.964800000000         0.034483777282
    3         51.345910000000         0.159767137996
    4         21.916910000000         0.474959033390
    5          9.893725000000         0.900198418069
    6          4.492527000000         1.097181913817
    7          2.002293000000         0.772887083172
    8          0.808409000000        -0.134581663835
    9          0.300600000000         0.034605880122
   10          2.793800000000        -1.257071785728
   11          7.471600000000        -0.922798007385
 D 11
    1        446.161300000000         0.003446503746
    2        133.964800000000         0.029869780935
    3         51.345910000000         0.138389984758
    4         21.916910000000         0.411408592632
    5          9.893725000000         0.779750122077
    6          4.492527000000         0.950376843668
    7          2.002293000000         0.669473290953
    8          0.808409000000        -0.060562086696
    9          0.300600000000         0.009175258898
   10          2.793800000000        -1.762322871542
   11          7.471600000000        -1.593883210024
 D 11
    1        446.161300000000         0.003202598123
    2        133.964800000000         0.027755926410
    3         51.345910000000         0.128596263938
    4         21.916910000000         0.382293617973
    5          9.893725000000         0.724567985750
    6          4.492527000000         0.883119624895
    7          2.002293000000         0.622095335679
    8          0.808409000000         0.606159625121
    9          0.300600000000        -0.132984393549
   10          2.793800000000        -0.421073541957
   11          7.471600000000        -2.111184951507
 D 11
    1        446.161300000000         0.002899243707
    2        133.964800000000         0.025126847610
    3         51.345910000000         0.116415452304
    4         21.916910000000         0.346082250654
    5          9.893725000000         0.655935928489
    6          4.492527000000         0.799469342441
    7          2.002293000000         0.563169626097
    8          0.808409000000        -1.129547812587
    9          0.300600000000        -0.066251502728
   10          2.793800000000         0.514465275881
   11          7.471600000000        -2.166995272315
 D 11
    1        446.161300000000         0.001147471199
    2        133.964800000000         0.009944777625
    3         51.345910000000         0.046075250000
    4         21.916910000000         0.136973450721
    5          9.893725000000         0.259608250371
    6          4.492527000000         0.316416326965
    7          2.002293000000         0.222892930458
    8          0.808409000000        -1.255823246279
    9          0.300600000000         1.421670225037
   10          2.793800000000         0.411027327454
   11          7.471600000000        -0.905230249233
 F 3
    1          0.662200000000        -0.001908939238
    2          3.951800000000         0.534512439237
    3         11.866400000000         0.610938338650
 F 3
    1          0.662200000000        -0.376838599596
    2          3.951800000000        -0.874190199103
    3         11.866400000000         0.889987379997
 F 3
    1          0.662200000000         0.954021007700
    2          3.951800000000        -0.630241045642
    3         11.866400000000         0.472742235718
 G 1
    1          8.899500000000         1.000000000000
 end
  // -----------------------------------------------
  // The basis set
  // -----------------------------------------------
  BAS[ATNO] = new BFNGauss[NSH];
  // Basis function   1 L = s
  InitBFNGauss(BAS[ATNO][  0]);
  BAS[ATNO][  0].l  = 0;
  BAS[ATNO][  0].ng = 76;
  BAS[ATNO][  0].a[  0] =  11718110.000000000000;     BAS[ATNO][  0].d[  0] =        -0.000005776485;
  BAS[ATNO][  0].a[  1] =   1754604.000000000000;     BAS[ATNO][  0].d[  1] =        -0.000045180364;
  BAS[ATNO][  0].a[  2] =    399281.299999999988;     BAS[ATNO][  0].d[  2] =        -0.000237764245;
[...]
  BAS[ATNO][ 12].a[ 28] =        23.682680000000;     BAS[ATNO][ 12].d[ 28] =        -0.097023891766;
  BAS[ATNO][ 12].a[ 29] =        10.875480000000;     BAS[ATNO][ 12].d[ 29] =         0.138476580577;
  BAS[ATNO][ 12].a[ 30] =         4.955131000000;     BAS[ATNO][ 12].d[ 30] =         0.451071970874;
  BAS[ATNO][ 12].a[ 31] =         2.217267000000;     BAS[ATNO][ 12].d[ 31] =         0.328126273700;
  BAS[ATNO][ 12].a[ 32] =         0.322154000000;     BAS[ATNO][ 12].d[ 32] =        -1.297898454312;
  BAS[ATNO][ 12].a[ 33] =         0.806410000000;     BAS[ATNO][ 12].d[ 33] =         0.311472650856;
  BAS[ATNO][ 12].a[ 34] =         0.117619000000;     BAS[ATNO][ 12].d[ 34] =         0.264891430037;
  BAS[ATNO][ 12].a[ 35] =         2.691200000000;     BAS[ATNO][ 12].d[ 35] =         4.221460657189;
  BAS[ATNO][ 12].a[ 36] =        13.832700000000;     BAS[ATNO][ 12].d[ 36] =         2.320929020579;

  // Basis function  14 L = p
  InitBFNGauss(BAS[ATNO][ 13]);
  BAS[ATNO][ 13].l  = 1;
  BAS[ATNO][ 13].ng = 37;
  BAS[ATNO][ 13].a[  0] =      9366.308999999999;     BAS[ATNO][ 13].d[  0] =        -0.001385457220;
  BAS[ATNO][ 13].a[  1] =      2219.554000000000;     BAS[ATNO][ 13].d[  1] =        -0.012031636643;
  BAS[ATNO][ 13].a[  2] =       719.452900000000;     BAS[ATNO][ 13].d[  2] =        -0.065265480841;
  BAS[ATNO][ 13].a[  3] =       273.464500000000;     BAS[ATNO][ 13].d[  3] =        -0.253521971120;
  BAS[ATNO][ 13].a[  4] =       114.752300000000;     BAS[ATNO][ 13].d[  4] =        -0.700877626413;
  BAS[ATNO][ 13].a[  5] =        51.155570000000;     BAS[ATNO][ 13].d[  5] =        -1.260224461568;
  BAS[ATNO][ 13].a[  6] =        23.682680000000;     BAS[ATNO][ 13].d[  6] =        -1.187458977851;
  BAS[ATNO][ 13].a[  7] =        10.875480000000;     BAS[ATNO][ 13].d[  7] =        -0.383388856403;
  BAS[ATNO][ 13].a[  8] =         4.955131000000;     BAS[ATNO][ 13].d[  8] =        -0.016768911425;
  BAS[ATNO][ 13].a[  9] =         2.217267000000;     BAS[ATNO][ 13].d[  9] =        -0.005743212995;
  BAS[ATNO][ 13].a[ 10] =         0.322154000000;     BAS[ATNO][ 13].d[ 10] =        -0.000720071006;
  BAS[ATNO][ 13].a[ 11] =      9366.308999999999;     BAS[ATNO][ 13].d[ 11] =         0.000920494409;
  BAS[ATNO][ 13].a[ 12] =      2219.554000000000;     BAS[ATNO][ 13].d[ 12] =         0.008040946800;
  BAS[ATNO][ 13].a[ 13] =       719.452900000000;     BAS[ATNO][ 13].d[ 13] =         0.044027996825;
  BAS[ATNO][ 13].a[ 14] =       273.464500000000;     BAS[ATNO][ 13].d[ 14] =         0.175839050003;
  BAS[ATNO][ 13].a[ 15] =       114.752300000000;     BAS[ATNO][ 13].d[ 15] =         0.508484857759;
  BAS[ATNO][ 13].a[ 16] =        51.155570000000;     BAS[ATNO][ 13].d[ 16] =         0.981025479187;
  BAS[ATNO][ 13].a[ 17] =        23.682680000000;     BAS[ATNO][ 13].d[ 17] =         0.862782085461;
  BAS[ATNO][ 13].a[ 18] =        10.875480000000;     BAS[ATNO][ 13].d[ 18] =        -0.956695527545;
  BAS[ATNO][ 13].a[ 19] =         4.955131000000;     BAS[ATNO][ 13].d[ 19] =        -2.910199267195;
  BAS[ATNO][ 13].a[ 20] =         2.217267000000;     BAS[ATNO][ 13].d[ 20] =        -2.094331891838;
  BAS[ATNO][ 13].a[ 21] =         0.322154000000;     BAS[ATNO][ 13].d[ 21] =         0.025581181833;
  BAS[ATNO][ 13].a[ 22] =      9366.308999999999;     BAS[ATNO][ 13].d[ 22] =         0.000125405644;
  BAS[ATNO][ 13].a[ 23] =      2219.554000000000;     BAS[ATNO][ 13].d[ 23] =         0.001103354378;
  BAS[ATNO][ 13].a[ 24] =       719.452900000000;     BAS[ATNO][ 13].d[ 24] =         0.006008706479;
  BAS[ATNO][ 13].a[ 25] =       273.464500000000;     BAS[ATNO][ 13].d[ 25] =         0.024258726120;
  BAS[ATNO][ 13].a[ 26] =       114.752300000000;     BAS[ATNO][ 13].d[ 26] =         0.069999761990;
  BAS[ATNO][ 13].a[ 27] =        51.155570000000;     BAS[ATNO][ 13].d[ 27] =         0.138145350402;
  BAS[ATNO][ 13].a[ 28] =        23.682680000000;     BAS[ATNO][ 13].d[ 28] =         0.115967658284;
  BAS[ATNO][ 13].a[ 29] =        10.875480000000;     BAS[ATNO][ 13].d[ 29] =        -0.165513921205;
  BAS[ATNO][ 13].a[ 30] =         4.955131000000;     BAS[ATNO][ 13].d[ 30] =        -0.539143083501;
  BAS[ATNO][ 13].a[ 31] =         2.217267000000;     BAS[ATNO][ 13].d[ 31] =        -0.392192426937;
  BAS[ATNO][ 13].a[ 32] =         0.322154000000;     BAS[ATNO][ 13].d[ 32] =         1.551311143039;
  BAS[ATNO][ 13].a[ 33] =         0.806410000000;     BAS[ATNO][ 13].d[ 33] =        -2.132205795176;
  BAS[ATNO][ 13].a[ 34] =         0.117619000000;     BAS[ATNO][ 13].d[ 34] =        -0.020252038101;
  BAS[ATNO][ 13].a[ 35] =         2.691200000000;     BAS[ATNO][ 13].d[ 35] =         6.203456264532;
  BAS[ATNO][ 13].a[ 36] =        13.832700000000;     BAS[ATNO][ 13].d[ 36] =         2.665415307580;

  // Basis function  15 L = p
  InitBFNGauss(BAS[ATNO][ 14]);
  BAS[ATNO][ 14].l  = 1;
  BAS[ATNO][ 14].ng = 37;
  BAS[ATNO][ 14].a[  0] =      9366.308999999999;     BAS[ATNO][ 14].d[  0] =        -0.000418662719;
  BAS[ATNO][ 14].a[  1] =      2219.554000000000;     BAS[ATNO][ 14].d[  1] =        -0.003635765611;
  BAS[ATNO][ 14].a[  2] =       719.452900000000;     BAS[ATNO][ 14].d[  2] =        -0.019722170632;
  BAS[ATNO][ 14].a[  3] =       273.464500000000;     BAS[ATNO][ 14].d[  3] =        -0.076610231150;
  BAS[ATNO][ 14].a[  4] =       114.752300000000;     BAS[ATNO][ 14].d[  4] =        -0.211793860431;
  BAS[ATNO][ 14].a[  5] =        51.155570000000;     BAS[ATNO][ 14].d[  5] =        -0.380819409360;
  BAS[ATNO][ 14].a[  6] =        23.682680000000;     BAS[ATNO][ 14].d[  6] =        -0.358830859403;
  BAS[ATNO][ 14].a[  7] =        10.875480000000;     BAS[ATNO][ 14].d[  7] =        -0.115853899288;
  BAS[ATNO][ 14].a[  8] =         4.955131000000;     BAS[ATNO][ 14].d[  8] =        -0.005067293279;
  BAS[ATNO][ 14].a[  9] =         2.217267000000;     BAS[ATNO][ 14].d[  9] =        -0.001735505894;
  BAS[ATNO][ 14].a[ 10] =         0.322154000000;     BAS[ATNO][ 14].d[ 10] =        -0.000217593789;
  BAS[ATNO][ 14].a[ 11] =      9366.308999999999;     BAS[ATNO][ 14].d[ 11] =         0.000142785532;
  BAS[ATNO][ 14].a[ 12] =      2219.554000000000;     BAS[ATNO][ 14].d[ 12] =         0.001247298031;
  BAS[ATNO][ 14].a[ 13] =       719.452900000000;     BAS[ATNO][ 14].d[ 13] =         0.006829548202;
  BAS[ATNO][ 14].a[ 14] =       273.464500000000;     BAS[ATNO][ 14].d[ 14] =         0.027275855236;
  BAS[ATNO][ 14].a[ 15] =       114.752300000000;     BAS[ATNO][ 14].d[ 15] =         0.078875308811;
  BAS[ATNO][ 14].a[ 16] =        51.155570000000;     BAS[ATNO][ 14].d[ 16] =         0.152175008639;
  BAS[ATNO][ 14].a[ 17] =        23.682680000000;     BAS[ATNO][ 14].d[ 17] =         0.133833293930;
  BAS[ATNO][ 14].a[ 18] =        10.875480000000;     BAS[ATNO][ 14].d[ 18] =        -0.148400987801;
  BAS[ATNO][ 14].a[ 19] =         4.955131000000;     BAS[ATNO][ 14].d[ 19] =        -0.451425175005;
  BAS[ATNO][ 14].a[ 20] =         2.217267000000;     BAS[ATNO][ 14].d[ 20] =        -0.324869211345;
  BAS[ATNO][ 14].a[ 21] =         0.322154000000;     BAS[ATNO][ 14].d[ 21] =         0.003968109544;
  BAS[ATNO][ 14].a[ 22] =      9366.308999999999;     BAS[ATNO][ 14].d[ 22] =         0.000170869098;
  BAS[ATNO][ 14].a[ 23] =      2219.554000000000;     BAS[ATNO][ 14].d[ 23] =         0.001503354724;
  BAS[ATNO][ 14].a[ 24] =       719.452900000000;     BAS[ATNO][ 14].d[ 24] =         0.008187049826;
  BAS[ATNO][ 14].a[ 25] =       273.464500000000;     BAS[ATNO][ 14].d[ 25] =         0.033053270310;
  BAS[ATNO][ 14].a[ 26] =       114.752300000000;     BAS[ATNO][ 14].d[ 26] =         0.095376857104;
  BAS[ATNO][ 14].a[ 27] =        51.155570000000;     BAS[ATNO][ 14].d[ 27] =         0.188227344927;
  BAS[ATNO][ 14].a[ 28] =        23.682680000000;     BAS[ATNO][ 14].d[ 28] =         0.158009548296;
  BAS[ATNO][ 14].a[ 29] =        10.875480000000;     BAS[ATNO][ 14].d[ 29] =        -0.225517875529;
  BAS[ATNO][ 14].a[ 30] =         4.955131000000;     BAS[ATNO][ 14].d[ 30] =        -0.734599252510;
  BAS[ATNO][ 14].a[ 31] =         2.217267000000;     BAS[ATNO][ 14].d[ 31] =        -0.534374403539;
  BAS[ATNO][ 14].a[ 32] =         0.322154000000;     BAS[ATNO][ 14].d[ 32] =         2.113709775682;
  BAS[ATNO][ 14].a[ 33] =         0.806410000000;     BAS[ATNO][ 14].d[ 33] =        -1.399349023202;
  BAS[ATNO][ 14].a[ 34] =         0.117619000000;     BAS[ATNO][ 14].d[ 34] =        -1.755272006418;
  BAS[ATNO][ 14].a[ 35] =         2.691200000000;     BAS[ATNO][ 14].d[ 35] =         2.283717774799;
  BAS[ATNO][ 14].a[ 36] =        13.832700000000;     BAS[ATNO][ 14].d[ 36] =         0.847603549735;

  // Basis function  16 L = d
  InitBFNGauss(BAS[ATNO][ 15]);
  BAS[ATNO][ 15].l  = 2;
  BAS[ATNO][ 15].ng = 11;
  BAS[ATNO][ 15].a[  0] =       446.161300000000;     BAS[ATNO][ 15].d[  0] =        -0.003978886482;
  BAS[ATNO][ 15].a[  1] =       133.964800000000;     BAS[ATNO][ 15].d[  1] =        -0.034483777282;
  BAS[ATNO][ 15].a[  2] =        51.345910000000;     BAS[ATNO][ 15].d[  2] =        -0.159767137996;
  BAS[ATNO][ 15].a[  3] =        21.916910000000;     BAS[ATNO][ 15].d[  3] =        -0.474959033390;
  BAS[ATNO][ 15].a[  4] =         9.893725000000;     BAS[ATNO][ 15].d[  4] =        -0.900198418069;
  BAS[ATNO][ 15].a[  5] =         4.492527000000;     BAS[ATNO][ 15].d[  5] =        -1.097181913817;
  BAS[ATNO][ 15].a[  6] =         2.002293000000;     BAS[ATNO][ 15].d[  6] =        -0.772887083172;
  BAS[ATNO][ 15].a[  7] =         0.808409000000;     BAS[ATNO][ 15].d[  7] =         0.134581663835;
  BAS[ATNO][ 15].a[  8] =         0.300600000000;     BAS[ATNO][ 15].d[  8] =        -0.034605880122;
  BAS[ATNO][ 15].a[  9] =         2.793800000000;     BAS[ATNO][ 15].d[  9] =         1.257071785728;
  BAS[ATNO][ 15].a[ 10] =         7.471600000000;     BAS[ATNO][ 15].d[ 10] =         0.922798007385;

  // Basis function  17 L = d
  InitBFNGauss(BAS[ATNO][ 16]);
  BAS[ATNO][ 16].l  = 2;
  BAS[ATNO][ 16].ng = 11;
  BAS[ATNO][ 16].a[  0] =       446.161300000000;     BAS[ATNO][ 16].d[  0] =        -0.003446503746;
  BAS[ATNO][ 16].a[  1] =       133.964800000000;     BAS[ATNO][ 16].d[  1] =        -0.029869780935;
  BAS[ATNO][ 16].a[  2] =        51.345910000000;     BAS[ATNO][ 16].d[  2] =        -0.138389984758;
  BAS[ATNO][ 16].a[  3] =        21.916910000000;     BAS[ATNO][ 16].d[  3] =        -0.411408592632;
  BAS[ATNO][ 16].a[  4] =         9.893725000000;     BAS[ATNO][ 16].d[  4] =        -0.779750122077;
  BAS[ATNO][ 16].a[  5] =         4.492527000000;     BAS[ATNO][ 16].d[  5] =        -0.950376843668;
  BAS[ATNO][ 16].a[  6] =         2.002293000000;     BAS[ATNO][ 16].d[  6] =        -0.669473290953;
  BAS[ATNO][ 16].a[  7] =         0.808409000000;     BAS[ATNO][ 16].d[  7] =         0.060562086696;
  BAS[ATNO][ 16].a[  8] =         0.300600000000;     BAS[ATNO][ 16].d[  8] =        -0.009175258898;
  BAS[ATNO][ 16].a[  9] =         2.793800000000;     BAS[ATNO][ 16].d[  9] =         1.762322871542;
  BAS[ATNO][ 16].a[ 10] =         7.471600000000;     BAS[ATNO][ 16].d[ 10] =         1.593883210024;

  // Basis function  18 L = d
  InitBFNGauss(BAS[ATNO][ 17]);
  BAS[ATNO][ 17].l  = 2;
  BAS[ATNO][ 17].ng = 11;
  BAS[ATNO][ 17].a[  0] =       446.161300000000;     BAS[ATNO][ 17].d[  0] =        -0.003202598123;
  BAS[ATNO][ 17].a[  1] =       133.964800000000;     BAS[ATNO][ 17].d[  1] =        -0.027755926410;
  BAS[ATNO][ 17].a[  2] =        51.345910000000;     BAS[ATNO][ 17].d[  2] =        -0.128596263938;
  BAS[ATNO][ 17].a[  3] =        21.916910000000;     BAS[ATNO][ 17].d[  3] =        -0.382293617973;
  BAS[ATNO][ 17].a[  4] =         9.893725000000;     BAS[ATNO][ 17].d[  4] =        -0.724567985750;
  BAS[ATNO][ 17].a[  5] =         4.492527000000;     BAS[ATNO][ 17].d[  5] =        -0.883119624895;
  BAS[ATNO][ 17].a[  6] =         2.002293000000;     BAS[ATNO][ 17].d[  6] =        -0.622095335679;
  BAS[ATNO][ 17].a[  7] =         0.808409000000;     BAS[ATNO][ 17].d[  7] =        -0.606159625121;
  BAS[ATNO][ 17].a[  8] =         0.300600000000;     BAS[ATNO][ 17].d[  8] =         0.132984393549;
  BAS[ATNO][ 17].a[  9] =         2.793800000000;     BAS[ATNO][ 17].d[  9] =         0.421073541957;
  BAS[ATNO][ 17].a[ 10] =         7.471600000000;     BAS[ATNO][ 17].d[ 10] =         2.111184951507;

  // Basis function  19 L = d
  InitBFNGauss(BAS[ATNO][ 18]);
  BAS[ATNO][ 18].l  = 2;
  BAS[ATNO][ 18].ng = 11;
  BAS[ATNO][ 18].a[  0] =       446.161300000000;     BAS[ATNO][ 18].d[  0] =        -0.002899243707;
  BAS[ATNO][ 18].a[  1] =       133.964800000000;     BAS[ATNO][ 18].d[  1] =        -0.025126847610;
  BAS[ATNO][ 18].a[  2] =        51.345910000000;     BAS[ATNO][ 18].d[  2] =        -0.116415452304;
  BAS[ATNO][ 18].a[  3] =        21.916910000000;     BAS[ATNO][ 18].d[  3] =        -0.346082250654;
  BAS[ATNO][ 18].a[  4] =         9.893725000000;     BAS[ATNO][ 18].d[  4] =        -0.655935928489;
  BAS[ATNO][ 18].a[  5] =         4.492527000000;     BAS[ATNO][ 18].d[  5] =        -0.799469342441;
  BAS[ATNO][ 18].a[  6] =         2.002293000000;     BAS[ATNO][ 18].d[  6] =        -0.563169626097;
  BAS[ATNO][ 18].a[  7] =         0.808409000000;     BAS[ATNO][ 18].d[  7] =         1.129547812587;
  BAS[ATNO][ 18].a[  8] =         0.300600000000;     BAS[ATNO][ 18].d[  8] =         0.066251502728;
  BAS[ATNO][ 18].a[  9] =         2.793800000000;     BAS[ATNO][ 18].d[  9] =        -0.514465275881;
  BAS[ATNO][ 18].a[ 10] =         7.471600000000;     BAS[ATNO][ 18].d[ 10] =         2.166995272315;

  // Basis function  20 L = d
  InitBFNGauss(BAS[ATNO][ 19]);
  BAS[ATNO][ 19].l  = 2;
  BAS[ATNO][ 19].ng = 11;
  BAS[ATNO][ 19].a[  0] =       446.161300000000;     BAS[ATNO][ 19].d[  0] =         0.001147471199;
  BAS[ATNO][ 19].a[  1] =       133.964800000000;     BAS[ATNO][ 19].d[  1] =         0.009944777625;
  BAS[ATNO][ 19].a[  2] =        51.345910000000;     BAS[ATNO][ 19].d[  2] =         0.046075250000;
  BAS[ATNO][ 19].a[  3] =        21.916910000000;     BAS[ATNO][ 19].d[  3] =         0.136973450721;
  BAS[ATNO][ 19].a[  4] =         9.893725000000;     BAS[ATNO][ 19].d[  4] =         0.259608250371;
  BAS[ATNO][ 19].a[  5] =         4.492527000000;     BAS[ATNO][ 19].d[  5] =         0.316416326965;
  BAS[ATNO][ 19].a[  6] =         2.002293000000;     BAS[ATNO][ 19].d[  6] =         0.222892930458;
  BAS[ATNO][ 19].a[  7] =         0.808409000000;     BAS[ATNO][ 19].d[  7] =        -1.255823246279;
  BAS[ATNO][ 19].a[  8] =         0.300600000000;     BAS[ATNO][ 19].d[  8] =         1.421670225037;
  BAS[ATNO][ 19].a[  9] =         2.793800000000;     BAS[ATNO][ 19].d[  9] =         0.411027327454;
  BAS[ATNO][ 19].a[ 10] =         7.471600000000;     BAS[ATNO][ 19].d[ 10] =        -0.905230249233;

  // Basis function  21 L = f
  InitBFNGauss(BAS[ATNO][ 20]);
  BAS[ATNO][ 20].l  = 3;
  BAS[ATNO][ 20].ng = 3;
  BAS[ATNO][ 20].a[  0] =         0.662200000000;     BAS[ATNO][ 20].d[  0] =        -0.001908939238;
  BAS[ATNO][ 20].a[  1] =         3.951800000000;     BAS[ATNO][ 20].d[  1] =         0.534512439237;
  BAS[ATNO][ 20].a[  2] =        11.866400000000;     BAS[ATNO][ 20].d[  2] =         0.610938338650;

  // Basis function  22 L = f
  InitBFNGauss(BAS[ATNO][ 21]);
  BAS[ATNO][ 21].l  = 3;
  BAS[ATNO][ 21].ng = 3;
  BAS[ATNO][ 21].a[  0] =         0.662200000000;     BAS[ATNO][ 21].d[  0] =        -0.376838599596;
  BAS[ATNO][ 21].a[  1] =         3.951800000000;     BAS[ATNO][ 21].d[  1] =        -0.874190199103;
  BAS[ATNO][ 21].a[  2] =        11.866400000000;     BAS[ATNO][ 21].d[  2] =         0.889987379997;

  // Basis function  23 L = f
  InitBFNGauss(BAS[ATNO][ 22]);
  BAS[ATNO][ 22].l  = 3;
  BAS[ATNO][ 22].ng = 3;
  BAS[ATNO][ 22].a[  0] =         0.662200000000;     BAS[ATNO][ 22].d[  0] =         0.954021007700;
  BAS[ATNO][ 22].a[  1] =         3.951800000000;     BAS[ATNO][ 22].d[  1] =        -0.630241045642;
  BAS[ATNO][ 22].a[  2] =        11.866400000000;     BAS[ATNO][ 22].d[  2] =         0.472742235718;

  // Basis function  24 L = g
  InitBFNGauss(BAS[ATNO][ 23]);
  BAS[ATNO][ 23].l  = 4;
  BAS[ATNO][ 23].ng = 1;
  BAS[ATNO][ 23].a[  0] =         8.899500000000;     BAS[ATNO][ 23].d[  0] =         1.000000000000;

-------
TIMINGS
-------

Total SCF time: 0 days 0 hours 0 min 5 sec 

Total time                  ....       5.081 sec
Sum of individual times     ....       4.764 sec  ( 93.8%)

Fock matrix formation       ....       3.945 sec  ( 77.6%)
  XC integration            ....       0.040 sec  (  1.0% of F)
    Basis function eval.    ....       0.010 sec  ( 25.5% of XC)
    Density eval.           ....       0.002 sec  (  5.7% of XC)
    XC-Functional eval.     ....       0.002 sec  (  4.4% of XC)
    XC-Potential eval.      ....       0.004 sec  ( 11.4% of XC)
Diagonalization             ....       0.001 sec  (  0.0%)
Density matrix formation    ....       0.001 sec  (  0.0%)
Population analysis         ....       0.001 sec  (  0.0%)
Initial guess               ....       0.089 sec  (  1.7%)
Orbital Transformation      ....       0.000 sec  (  0.0%)
Orbital Orthonormalization  ....       0.000 sec  (  0.0%)
DIIS solution               ....       0.000 sec  (  0.0%)
SOSCF solution              ....       0.001 sec  (  0.0%)
Grid generation             ....       0.726 sec  ( 14.3%)

-------------------------   --------------------
FINAL SINGLE POINT ENERGY     -1417.644233163092
-------------------------   --------------------


                            ***************************************
                            *     ORCA property calculations      *
                            ***************************************

                                    ---------------------
                                    Active property flags
                                    ---------------------
   (+) Dipole Moment


------------------------------------------------------------------------------
                       ORCA ELECTRIC PROPERTIES CALCULATION
------------------------------------------------------------------------------

Dipole Moment Calculation                       ... on
Quadrupole Moment Calculation                   ... off
Polarizability Calculation                      ... off
GBWName                                         ... Kr_cc-pcvtz_68.5179945_.gbw
Electron density file                           ... Kr_cc-pcvtz_68.5179945_.scfp
The origin for moment calculation is the CENTER OF MASS  = ( 0.000000,  0.000000  0.000000)

-------------
DIPOLE MOMENT
-------------
                                X             Y             Z
Electronic contribution:      0.00000       0.00000      -0.00000
Nuclear contribution   :      0.00000       0.00000       0.00000
                        -----------------------------------------
Total Dipole Moment    :      0.00000       0.00000      -0.00000
                        -----------------------------------------
Magnitude (a.u.)       :      0.00000
Magnitude (Debye)      :      0.00000



--------------------
Rotational spectrum 
--------------------
 
Rotational constants in cm-1:     0.000000     0.000000     0.000000 
Rotational constants in MHz :     0.000000     0.000000     0.000000 

 Dipole components along the rotational axes: 
x,y,z [a.u.] :     0.000000     0.000000    -0.000000 
x,y,z [Debye]:     0.000000     0.000000    -0.000000 

 

Timings for individual modules:

Sum of individual times         ...        7.140 sec (=   0.119 min)
GTO integral calculation        ...        1.252 sec (=   0.021 min)  17.5 %
Relativistic integrals          ...        0.523 sec (=   0.009 min)   7.3 %
SCF iterations                  ...        5.365 sec (=   0.089 min)  75.1 %
                             ****ORCA TERMINATED NORMALLY****
TOTAL RUN TIME: 0 days 0 hours 0 minutes 7 seconds 505 msec
