
                                 *****************
                                 * O   R   C   A *
                                 *****************

           --- An Ab Initio, DFT and Semiempirical electronic structure package ---

                  #######################################################
                  #                        -***-                        #
                  #          Department of theory and spectroscopy      #
                  #               Directorship: Frank Neese             #
                  #        Max Planck Institute fuer Kohlenforschung    #
                  #                Kaiser Wilhelm Platz 1               #
                  #                 D-45470 Muelheim/Ruhr               #
                  #                      Germany                        #
                  #                                                     #
                  #                  All rights reserved                #
                  #                        -***-                        #
                  #######################################################


                         Program Version 4.2.1 -  RELEASE  -


 With contributions from (in alphabetic order):
   Daniel Aravena         : Magnetic Suceptibility
   Michael Atanasov       : Ab Initio Ligand Field Theory (pilot matlab implementation)
   Alexander A. Auer      : GIAO ZORA, VPT2
   Ute Becker             : Parallelization
   Giovanni Bistoni       : ED, misc. LED, open-shell LED, HFLD
   Martin Brehm           : Molecular dynamics
   Dmytro Bykov           : SCF Hessian
   Vijay G. Chilkuri      : MRCI spin determinant printing, contributions to CSF-ICE
   Dipayan Datta          : RHF DLPNO-CCSD density
   Achintya Kumar Dutta   : EOM-CC, STEOM-CC
   Dmitry Ganyushin       : Spin-Orbit,Spin-Spin,Magnetic field MRCI
   Miquel Garcia          : C-PCM Hessian, Gaussian charge scheme
   Yang Guo               : DLPNO-NEVPT2, CIM, IAO-localization
   Andreas Hansen         : Spin unrestricted coupled pair/coupled cluster methods
   Benjamin Helmich-Paris : CASSCF linear response (MC-RPA)
   Lee Huntington         : MR-EOM, pCC
   Robert Izsak           : Overlap fitted RIJCOSX, COSX-SCS-MP3, EOM
   Christian Kollmar      : KDIIS, OOCD, Brueckner-CCSD(T), CCSD density
   Simone Kossmann        : Meta GGA functionals, TD-DFT gradient, OOMP2, MP2 Hessian
   Martin Krupicka        : AUTO-CI
   Lucas Lang             : DCDCAS
   Dagmar Lenk            : GEPOL surface, SMD
   Dimitrios Liakos       : Extrapolation schemes; Compound Job, initial MDCI parallelization
   Dimitrios Manganas     : Further ROCIS development; embedding schemes
   Dimitrios Pantazis     : SARC Basis sets
   Taras Petrenko         : DFT Hessian,TD-DFT gradient, ASA, ECA, R-Raman, ABS, FL, XAS/XES, NRVS
   Peter Pinski           : DLPNO-MP2, DLPNO-MP2 Gradient
   Christoph Reimann      : Effective Core Potentials
   Marius Retegan         : Local ZFS, SOC
   Christoph Riplinger    : Optimizer, TS searches, QM/MM, DLPNO-CCSD(T), (RO)-DLPNO pert. Triples
   Tobias Risthaus        : Range-separated hybrids, TD-DFT gradient, RPA, STAB
   Michael Roemelt        : Original ROCIS implementation
   Masaaki Saitow         : Open-shell DLPNO-CCSD energy and density
   Barbara Sandhoefer     : DKH picture change effects
   Avijit Sen             : IP-ROCIS
   Kantharuban Sivalingam : CASSCF convergence, NEVPT2, FIC-MRCI
   Bernardo de Souza      : ESD, SOC TD-DFT
   Georgi Stoychev        : AutoAux, RI-MP2 NMR
   Willem Van den Heuvel  : Paramagnetic NMR
   Boris Wezisla          : Elementary symmetry handling
   Frank Wennmohs         : Technical directorship


 We gratefully acknowledge several colleagues who have allowed us to
 interface, adapt or use parts of their codes:
   Stefan Grimme, W. Hujo, H. Kruse,             : VdW corrections, initial TS optimization,
                  C. Bannwarth                     DFT functionals, gCP, sTDA/sTD-DF
   Ed Valeev, F. Pavosevic, A. Kumar             : LibInt (2-el integral package), F12 methods
   Garnet Chan, S. Sharma, J. Yang, R. Olivares  : DMRG
   Ulf Ekstrom                                   : XCFun DFT Library
   Mihaly Kallay                                 : mrcc  (arbitrary order and MRCC methods)
   Andreas Klamt, Michael Diedenhofen            : otool_cosmo (COSMO solvation model)
   Jiri Pittner, Ondrej Demel                    : Mk-CCSD
   Frank Weinhold                                : gennbo (NPA and NBO analysis)
   Christopher J. Cramer and Donald G. Truhlar   : smd solvation model
   Lars Goerigk                                  : TD-DFT with DH, B97 family of functionals
   V. Asgeirsson, H. Jonsson                     : NEB implementation
   FAccTs GmbH                                   : IRC, NEB, NEB-TS, Multilevel, MM, QM/MM, CI optimization
   S Lehtola, MJT Oliveira, MAL Marques          : LibXC Library


 Your calculation uses the libint2 library for the computation of 2-el integrals
 For citations please refer to: http://libint.valeyev.net

 Your ORCA version has been built with support for libXC version: 4.2.3
 For citations please refer to: https://tddft.org/programs/libxc/

 This ORCA versions uses:
   CBLAS   interface :  Fast vector & matrix operations
   LAPACKE interface :  Fast linear algebra routines
   SCALAPACK package :  Parallel linear algebra routines


----- Orbital basis set information -----
Your calculation utilizes the basis: cc-pCVTZ 
             H : cc-pVTZ. Obtained from the ccRepo (grant-hill.group.shef.ac.uk/ccrepo) Feb. 2017
                 T. H. Dunning, Jr., J. Chem. Phys. 90, 1007 (1989)
            He : cc-pVTZ. Obtained from the ccRepo (grant-hill.group.shef.ac.uk/ccrepo) Feb. 2017
                 D. E. Woon, T. H. Dunning, Jr., J. Chem. Phys. 100, 2975 (1994)
  Li-Be, Na-Mg : Obtained from the ccRepo (grant-hill.group.shef.ac.uk/ccrepo) Feb. 2017
                 B. P. Prascher, D. E. Woon, K. A. Peterson, T. H. Dunning, Jr., A. K. Wilson, Theor. Chem. Acc. 128, 69 (2011)
          B-Ne : Obtained from the ccRepo (grant-hill.group.shef.ac.uk/ccrepo) Feb. 2017
                 D. E. Woon, T. H. Dunning, Jr., J. Chem. Phys. 103, 4572 (1995)
                  K. A. Peterson, T. H. Dunning, Jr., J. Chem. Phys. 117, 10548 (2002)
         Al-Ar : Obtained from the EMSL Basis Set Exchange (bse.pnl.gov) Feb. 2017
                 K. A. Peterson, T. H. Dunning, Jr., J. Chem. Phys. 117, 10548 (2002)
            Ca : Obtained from the Peterson Research Group Website (tyr0.chem.wsu.edu/~kipeters) Feb. 2017
                 J. Koput, K. A. Peterson, J. Phys. Chem. 106, 9595 (2002)
         Ga-Kr : Obtained from the Peterson Research Group Website (tyr0.chem.wsu.edu/~kipeters) Feb. 2017
                 N. J. DeYonker, K. A. Peterson, A. K. Wilson, J. Phys. Chem. A 111, 11383 (2007)

================================================================================
                                        WARNINGS
                       Please study these warnings very carefully!
================================================================================


INFO   : the flag for use of LIBINT has been found!

================================================================================
                                       INPUT FILE
================================================================================
NAME = Kr_cc-pcvtz_274.071978_.inp
|  1> ! LDA cc-pcvtz nori grid5 finalgrid6 verytightscf
|  2> %Pal NProcs 18 End
|  3> 
|  4> % REL
|  5>   Method ZORA
|  6>   ModelPot 1, 0, 0, 0
|  7>   velit 274.071978
|  8> END
|  9> 
| 10> *xyz 34 1
| 11> Kr 0.0 0.0 0.0
| 12> **                         ****END OF INPUT****
================================================================================

                       ****************************
                       * Single Point Calculation *
                       ****************************

---------------------------------
CARTESIAN COORDINATES (ANGSTROEM)
---------------------------------
  Kr     0.000000    0.000000    0.000000

----------------------------
CARTESIAN COORDINATES (A.U.)
----------------------------
  NO LB      ZA    FRAG     MASS         X           Y           Z
   0 Kr   36.0000    0    83.800    0.000000    0.000000    0.000000

--------------------------------
INTERNAL COORDINATES (ANGSTROEM)
--------------------------------
 Kr     0   0   0     0.000000000000     0.00000000     0.00000000

---------------------------
INTERNAL COORDINATES (A.U.)
---------------------------
 Kr     0   0   0     0.000000000000     0.00000000     0.00000000

---------------------
BASIS SET INFORMATION
---------------------
There are 1 groups of distinct atoms

 Group   1 Type Kr  : 76s37p11d3f1g contracted to 8s7p5d3f1g pattern {181818181111/1111111111/71111/111/1}

Atom   0Kr   basis set group =>   1


           ************************************************************
           *        Program running with 18 parallel MPI-processes    *
           *              working on a common directory               *
           ************************************************************
------------------------------------------------------------------------------
                           ORCA GTO INTEGRAL CALCULATION
------------------------------------------------------------------------------

                         BASIS SET STATISTICS AND STARTUP INFO

 # of primitive gaussian shells          ...  128
 # of primitive gaussian functions       ...  272
 # of contracted shells                  ...   24
 # of contracted basis functions         ...   84
 Highest angular momentum                ...    4
 Maximum contraction depth               ...   18
 Integral package used                   ... LIBINT
 Integral threshhold            Thresh   ...  1.000e-12
 Primitive cut-off              TCut     ...  1.000e-14


------------------------------ INTEGRAL EVALUATION ----------------------------


 * One electron integrals 
 Pre-screening matrix                    ... done
 Shell pair data                         ... done (   0.000 sec)



           ************************************************************
           *        Program running with 18 parallel MPI-processes    *
           *              working on a common directory               *
           ************************************************************
------------------------------------------------------------------------------
                          ORCA RELATIVISTIC HAMILTONIAN
------------------------------------------------------------------------------

Relativistic Method            ... ZORA(MP)
Treatment of potential         ... Van Wuellen
Nucleus model                  ... Point Nucleus
Speed of light used            ... 274.07197800000000


            *************************************************
            *         ZERO ORDER REGULAR APPROXIMATION      *
            *                     ZORA(MP)                  *
            *            Programmed by FN according to      *
            *                   C. van Wuellen              *
            *       J. Chem. Phys. (1998) vol 109, 392-399  *
            *************************************************

Terms included in model potential: +V(e,N)
Basis function cutoff value   ... 1.000000e-12
Loading the fitted atomic densities  (DKH4)  ... done
Calculating the cutoffs                      ... done
Number of fit functions                      ... 27
Setting up the integration grid ... done


           ************************************************************
           *        Program running with 18 parallel MPI-processes    *
           *              working on a common directory               *
           ************************************************************
-------------------------------------------------------------------------------
                                 ORCA SCF
-------------------------------------------------------------------------------

------------
SCF SETTINGS
------------
Hamiltonian:
 Density Functional     Method          .... DFT(GTOs)
 Exchange Functional    Exchange        .... Slater
   X-Alpha parameter    XAlpha          ....  0.666667
 Correlation Functional Correlation     .... VWN-5
 Gradients option       PostSCFGGA      .... off
   Density functional embedding theory  .... OFF

Relativistic Settings:
 Scalar relativistic method             .... ZORA
 Speed of light used       Velit        ....       274.071978
Orbital energies will be scaled


General Settings:
 Integral files         IntName         .... Kr_cc-pcvtz_274.071978_
 Hartree-Fock type      HFTyp           .... RHF
 Total Charge           Charge          ....   34
 Multiplicity           Mult            ....    1
 Number of Electrons    NEL             ....    2
 Basis Dimension        Dim             ....   84
 Nuclear Repulsion      ENuc            ....      0.0000000000 Eh

Convergence Acceleration:
 DIIS                   CNVDIIS         .... on
   Start iteration      DIISMaxIt       ....    12
   Startup error        DIISStart       ....  0.200000
   # of expansion vecs  DIISMaxEq       ....     5
   Bias factor          DIISBfac        ....   1.050
   Max. coefficient     DIISMaxC        ....  10.000
 Newton-Raphson         CNVNR           .... off
 SOSCF                  CNVSOSCF        .... on
   Start iteration      SOSCFMaxIt      ....   150
   Startup grad/error   SOSCFStart      ....  0.003300
 Level Shifting         CNVShift        .... on
   Level shift para.    LevelShift      ....    0.2500
   Turn off err/grad.   ShiftErr        ....    0.0010
 Zerner damping         CNVZerner       .... off
 Static damping         CNVDamp         .... on
   Fraction old density DampFac         ....    0.7000
   Max. Damping (<1)    DampMax         ....    0.9800
   Min. Damping (>=0)   DampMin         ....    0.0000
   Turn off err/grad.   DampErr         ....    0.1000
 Fernandez-Rico         CNVRico         .... off

SCF Procedure:
 Maximum # iterations   MaxIter         ....   125
 SCF integral mode      SCFMode         .... Direct
   Integral package                     .... LIBINT
 Reset frequency        DirectResetFreq ....    20
 Integral Threshold     Thresh          ....  1.000e-12 Eh
 Primitive CutOff       TCut            ....  1.000e-14 Eh

Convergence Tolerance:
 Convergence Check Mode ConvCheckMode   .... Total+1el-Energy
 Convergence forced     ConvForced      .... 0
 Energy Change          TolE            ....  1.000e-09 Eh
 1-El. energy change                    ....  1.000e-06 Eh
 Orbital Gradient       TolG            ....  2.000e-06
 Orbital Rotation angle TolX            ....  2.000e-06
 DIIS Error             TolErr          ....  1.000e-08


Diagonalization of the overlap matrix:
Smallest eigenvalue                        ... 1.149e-03
Time for diagonalization                   ...    0.002 sec
Threshold for overlap eigenvalues          ... 1.000e-08
Number of eigenvalues below threshold      ... 0
Time for construction of square roots      ...    0.001 sec
Total time needed                          ...    0.004 sec

-------------------
DFT GRID GENERATION
-------------------

General Integration Accuracy     IntAcc      ...  5.010
Radial Grid Type                 RadialGrid  ... Gauss-Chebyshev
Angular Grid (max. acc.)         AngularGrid ... Lebedev-434
Angular grid pruning method      GridPruning ... 3 (G Style)
Weight generation scheme         WeightScheme... Becke
Basis function cutoff            BFCut       ...    1.0000e-12
Integration weight cutoff        WCut        ...    1.0000e-14
Grids for H and He will be reduced by one unit

# of grid points (after initial pruning)     ...  16106 (   0.0 sec)
# of grid points (after weights+screening)   ...  16106 (   0.0 sec)
Grid point division into batches done        ...    0.2 sec
Reduced shell lists constructed in    0.2 sec

Total number of grid points                  ...    16106
Total number of batches                      ...      252
Average number of points per batch           ...       63
Average number of grid points per atom       ...    16106
Average number of shells per batch           ...     0.53 ( 2.22%)
Average number of basis functions per batch  ...     1.60 ( 1.90%)
Average number of large shells per batch     ...     0.53 (100.00%)
Average number of large basis fcns per batch ...     1.60 (100.00%)
Maximum spatial batch extension              ...  17.34, 17.34, 17.34 au
Average spatial batch extension              ...   0.86,  0.87,  0.87 au

Time for grid setup =    0.269 sec

------------------------------
INITIAL GUESS: MODEL POTENTIAL
------------------------------
Loading ZORA relativistic densities                ... done
Calculating cut-offs                               ... done
Setting up the integral package                    ... done
Initializing the effective Hamiltonian             ... done
Starting the Coulomb interaction                   ... done (   0.0 sec)
Reading the grid                                   ... done
Mapping shells                                     ... done
Starting the XC term evaluation                    ... done (   0.0 sec)
  promolecular density results
     # of electrons  =     36.000000565
     EX              =    -91.042004939
     EC              =     -3.295965580
     EX+EC           =    -94.337970520
Transforming the Hamiltonian                       ... done (   0.0 sec)
Diagonalizing the Hamiltonian                      ... done (   0.0 sec)
Back transforming the eigenvectors                 ... done (   0.0 sec)
Now organizing SCF variables                       ... done
                      ------------------
                      INITIAL GUESS DONE (   0.3 sec)
                      ------------------
--------------
SCF ITERATIONS
--------------
ITER       Energy         Delta-E        Max-DP      RMS-DP      [F,P]     Damp
               ***  Starting incremental Fock matrix formation  ***
  0  -1281.3831687876   0.000000000000 0.01964219  0.00033838  5.9845305 0.7000
                      *** Initiating the SOSCF procedure ***
                      *** Re-Reading the Fockian *** 
                      *** Removing any level shift *** 
ITER      Energy       Delta-E        Grad      Rot      Max-DP    RMS-DP
  1  -1281.39966632  -0.0164975345  0.002648  0.002648  0.045807  0.000789
               *** Restarting incremental Fock matrix formation ***
  2  -1281.43798647  -0.0383201442  0.010008  0.000021  0.000120  0.000002
  3  -1281.43798701  -0.0000005482  0.000044  0.000000  0.000001  0.000000
                 **** Energy Check signals convergence ****
              ***Rediagonalizing the Fockian in SOSCF/NRSCF***

               *****************************************************
               *                     SUCCESS                       *
               *           SCF CONVERGED AFTER   4 CYCLES          *
               *****************************************************

Setting up the final grid:

General Integration Accuracy     IntAcc      ...  5.340
Radial Grid Type                 RadialGrid  ... Gauss-Chebyshev
Angular Grid (max. acc.)         AngularGrid ... Lebedev-590
Angular grid pruning method      GridPruning ... 3 (G Style)
Weight generation scheme         WeightScheme... Becke
Basis function cutoff            BFCut       ...    1.0000e-12
Integration weight cutoff        WCut        ...    1.0000e-14
Grids for H and He will be reduced by one unit

# of grid points (after initial pruning)     ...  24180 (   0.0 sec)
# of grid points (after weights+screening)   ...  24180 (   0.0 sec)
Grid point division into batches done        ...    0.4 sec
Reduced shell lists constructed in    0.4 sec

Total number of grid points                  ...    24180
Total number of batches                      ...      378
Average number of points per batch           ...       63
Average number of grid points per atom       ...    24180
Average number of shells per batch           ...     0.27 ( 1.14%)
Average number of basis functions per batch  ...     0.55 ( 0.65%)
Average number of large shells per batch     ...     0.14 (50.00%)
Average number of large basis fcns per batch ...     0.41 (75.00%)
Maximum spatial batch extension              ...  17.58, 17.58, 17.58 au
Average spatial batch extension              ...   0.77,  0.77,  0.77 au

Final grid set up in    0.4 sec
Final integration                            ... done (   0.0 sec)
Change in XC energy                          ...    -0.000060380
Integrated number of electrons               ...     1.999999890
Previous integrated no of electrons          ...     1.999998345

----------------
TOTAL SCF ENERGY
----------------

Total Energy       :        -1281.43804739 Eh          -34869.70201 eV

Components:
Nuclear Repulsion  :            0.00000000 Eh               0.00000 eV
Electronic Energy  :        -1281.43804739 Eh          -34869.70201 eV
One Electron Energy:        -1306.60036527 Eh          -35554.40349 eV
Two Electron Energy:           25.16231788 Eh             684.70148 eV

Virial components:
Potential Energy   :        -2542.99631567 Eh          -69198.44773 eV
Kinetic Energy     :         1261.55826828 Eh           34328.74572 eV
Virial Ratio       :            2.01575811


DFT components:
N(Alpha)           :        0.999999944833 electrons
N(Beta)            :        0.999999944833 electrons
N(Total)           :        1.999999889666 electrons
E(X)               :      -19.105846398028 Eh       
E(C)               :       -0.278095008881 Eh       
E(XC)              :      -19.383941406909 Eh       
DFET-embed. en.    :        0.000000000000 Eh       

---------------
SCF CONVERGENCE
---------------

  Last Energy change         ...   -1.0459e-11  Tolerance :   1.0000e-09
  Last MAX-Density change    ...    0.0000e+00  Tolerance :   1.0000e-08
  Last RMS-Density change    ...    0.0000e+00  Tolerance :   1.0000e-09
  Last Orbital Gradient      ...    2.3577e-11  Tolerance :   2.0000e-06
  Last Orbital Rotation      ...    0.0000e+00  Tolerance :   2.0000e-06

================================================================================
                                        WARNING
Number of found core electrons (2) does not match given number of chemical core electrons (18)
================================================================================
             **** THE GBW FILE WAS UPDATED (Kr_cc-pcvtz_274.071978_.gbw) ****
             **** DENSITY FILE WAS UPDATED (Kr_cc-pcvtz_274.071978_.scfp) ****
             **** ENERGY FILE WAS UPDATED (Kr_cc-pcvtz_274.071978_.en.tmp) ****
             **** THE GBW FILE WAS UPDATED (Kr_cc-pcvtz_274.071978_.gbw) ****
             **** DENSITY FILE WAS UPDATED (Kr_cc-pcvtz_274.071978_.scfp) ****
----------------
ORBITAL ENERGIES
----------------

  NO   OCC          E(Eh)            E(eV) 
   0   2.0000    -621.640000    -16915.6844 
   1   0.0000    -149.688063     -4073.2193 
   2   0.0000    -147.634770     -4017.3463 
   3   0.0000    -147.634770     -4017.3463 
   4   0.0000    -147.634770     -4017.3463 
   5   0.0000     -65.456705     -1781.1675 
   6   0.0000     -65.039510     -1769.8150 
   7   0.0000     -65.039510     -1769.8150 
   8   0.0000     -65.039510     -1769.8150 
   9   0.0000     -64.420491     -1752.9707 
  10   0.0000     -64.420491     -1752.9707 
  11   0.0000     -64.420491     -1752.9707 
  12   0.0000     -64.420491     -1752.9707 
  13   0.0000     -64.420491     -1752.9707 
  14   0.0000     -36.550479      -994.5891 
  15   0.0000     -36.452512      -991.9233 
  16   0.0000     -36.452512      -991.9233 
  17   0.0000     -36.452512      -991.9233 
  18   0.0000     -36.137763      -983.3585 
  19   0.0000     -36.137763      -983.3585 
  20   0.0000     -36.137763      -983.3585 
  21   0.0000     -36.137763      -983.3585 
  22   0.0000     -36.137763      -983.3585 
  23   0.0000     -35.711825      -971.7682 
  24   0.0000     -35.711825      -971.7682 
  25   0.0000     -35.711825      -971.7682 
  26   0.0000     -35.711825      -971.7682 
  27   0.0000     -35.711825      -971.7682 
  28   0.0000     -35.711825      -971.7682 
  29   0.0000     -35.711825      -971.7682 
  30   0.0000     -22.788797      -620.1147 
  31   0.0000     -22.666044      -616.7744 
  32   0.0000     -22.666044      -616.7744 
  33   0.0000     -22.666044      -616.7744 
  34   0.0000     -22.398116      -609.4837 
  35   0.0000     -22.398116      -609.4837 
  36   0.0000     -22.398116      -609.4837 
  37   0.0000     -22.398116      -609.4837 
  38   0.0000     -22.398116      -609.4837 
  39   0.0000     -20.239883      -550.7552 
  40   0.0000     -20.239883      -550.7552 
  41   0.0000     -20.239883      -550.7552 
  42   0.0000     -20.239883      -550.7552 
  43   0.0000     -20.239883      -550.7552 
  44   0.0000     -20.239883      -550.7552 
  45   0.0000     -20.239883      -550.7552 
  46   0.0000     -16.871466      -459.0959 
  47   0.0000     -16.871466      -459.0959 
  48   0.0000     -16.871466      -459.0959 
  49   0.0000     -16.871466      -459.0959 
  50   0.0000     -16.871466      -459.0959 
  51   0.0000     -16.871466      -459.0959 
  52   0.0000     -16.871466      -459.0959 
  53   0.0000     -16.871466      -459.0959 
  54   0.0000     -16.871466      -459.0959 
  55   0.0000     -15.602618      -424.5688 
  56   0.0000     -15.602618      -424.5688 
  57   0.0000     -15.602618      -424.5688 
  58   0.0000     -15.602618      -424.5688 
  59   0.0000     -15.602618      -424.5688 
  60   0.0000     -15.362813      -418.0434 
  61   0.0000     -15.362813      -418.0434 
  62   0.0000     -15.362813      -418.0434 
  63   0.0000     -15.362813      -418.0434 
  64   0.0000     -15.362813      -418.0434 
  65   0.0000     -15.362813      -418.0434 
  66   0.0000     -15.362813      -418.0434 
  67   0.0000     -14.706036      -400.1716 
  68   0.0000     -14.403075      -391.9276 
  69   0.0000     -14.403075      -391.9276 
  70   0.0000     -14.403075      -391.9276 
  71   0.0000     -11.246062      -306.0209 
  72   0.0000     -11.246062      -306.0209 
  73   0.0000     -11.246062      -306.0209 
  74   0.0000     -11.246062      -306.0209 
  75   0.0000     -11.246062      -306.0209 
  76   0.0000      -9.828698      -267.4525 
  77   0.0000      -9.828698      -267.4525 
  78   0.0000      -9.828698      -267.4525 
  79   0.0000      -9.476552      -257.8701 
  80   0.0000      -7.868020      -214.0997 
  81   0.0000      -7.868020      -214.0997 
  82   0.0000      -7.868020      -214.0997 
  83   0.0000      26.845253       730.4965 

                    ********************************
                    * MULLIKEN POPULATION ANALYSIS *
                    ********************************

-----------------------
MULLIKEN ATOMIC CHARGES
-----------------------
   0 Kr:   34.000000
Sum of atomic charges:   34.0000000

--------------------------------
MULLIKEN REDUCED ORBITAL CHARGES
--------------------------------
  0 Krs       :     2.000000  s :     2.000000
      pz      :     0.000000  p :     0.000000
      px      :     0.000000
      py      :     0.000000
      dz2     :     0.000000  d :     0.000000
      dxz     :     0.000000
      dyz     :     0.000000
      dx2y2   :     0.000000
      dxy     :     0.000000
      f0      :     0.000000  f :     0.000000
      f+1     :     0.000000
      f-1     :     0.000000
      f+2     :     0.000000
      f-2     :     0.000000
      f+3     :     0.000000
      f-3     :     0.000000
      g0      :     0.000000  g :     0.000000
      g+1     :     0.000000
      g-1     :     0.000000
      g+2     :     0.000000
      g-2     :     0.000000
      g+3     :     0.000000
      g-3     :     0.000000
      g+4     :     0.000000
      g-4     :     0.000000


                     *******************************
                     * LOEWDIN POPULATION ANALYSIS *
                     *******************************

----------------------
LOEWDIN ATOMIC CHARGES
----------------------
   0 Kr:   34.000000

-------------------------------
LOEWDIN REDUCED ORBITAL CHARGES
-------------------------------
  0 Krs       :     2.000000  s :     2.000000
      pz      :     0.000000  p :     0.000000
      px      :     0.000000
      py      :     0.000000
      dz2     :     0.000000  d :     0.000000
      dxz     :     0.000000
      dyz     :     0.000000
      dx2y2   :     0.000000
      dxy     :     0.000000
      f0      :     0.000000  f :     0.000000
      f+1     :     0.000000
      f-1     :     0.000000
      f+2     :     0.000000
      f-2     :     0.000000
      f+3     :     0.000000
      f-3     :     0.000000
      g0      :     0.000000  g :     0.000000
      g+1     :     0.000000
      g-1     :     0.000000
      g+2     :     0.000000
      g-2     :     0.000000
      g+3     :     0.000000
      g-3     :     0.000000
      g+4     :     0.000000
      g-4     :     0.000000


                      *****************************
                      * MAYER POPULATION ANALYSIS *
                      *****************************

  NA   - Mulliken gross atomic population
  ZA   - Total nuclear charge
  QA   - Mulliken gross atomic charge
  VA   - Mayer's total valence
  BVA  - Mayer's bonded valence
  FA   - Mayer's free valence

  ATOM       NA         ZA         QA         VA         BVA        FA
  0 Kr     2.0000    36.0000    34.0000     0.0000     0.0000     0.0000

  Mayer bond orders larger than 0.100000


--------------------------
ATOM BASIS FOR ELEMENT Kr
--------------------------
 NewGTO Kr
 S 76
    1   11718110.000000000000         0.000005598864
    2    1754604.000000000000         0.000043791117
    3     399281.299999999988         0.000230453252
    4     113084.600000000006         0.000973102603
    5      36885.930000000000         0.003532983322
    6      13312.209999999999         0.011414384551
    7       5189.988000000000         0.033125780316
    8       2151.660000000000         0.085429070406
    9        938.032500000000         0.186874491837
   10        426.557300000000         0.314912218924
   11        201.066600000000         0.334265593022
   12         97.097610000000         0.160848371329
   13         42.998720000000         0.017839881116
   14         21.177070000000        -0.001379020261
   15         10.426750000000         0.000657066712
   16          4.585008000000        -0.000338731287
   17          2.117603000000         0.000121075439
   18          0.349225000000         0.000036592577
   19   11718110.000000000000         0.000000010924
   20    1754604.000000000000         0.000000083749
   21     399281.299999999988         0.000000440592
   22     113084.600000000006         0.000001858860
   23      36885.930000000000         0.000006783050
   24      13312.209999999999         0.000022011384
   25       5189.988000000000         0.000065197877
   26       2151.660000000000         0.000174168489
   27        938.032500000000         0.000416728842
   28        426.557300000000         0.000828479483
   29        201.066600000000         0.001227380743
   30         97.097610000000         0.000661839894
   31         42.998720000000        -0.002014079863
   32         21.177070000000        -0.003609848759
   33         10.426750000000        -0.001471567523
   34          4.585008000000        -0.000104528888
   35          2.117603000000        -0.000002236337
   36          0.349225000000         0.000000699728
   37   11718110.000000000000         0.000000010890
   38    1754604.000000000000         0.000000085567
   39     399281.299999999988         0.000000454281
   40     113084.600000000006         0.000001910471
   41      36885.930000000000         0.000006986910
   42      13312.209999999999         0.000022647172
   43       5189.988000000000         0.000067393889
   44       2151.660000000000         0.000180413498
   45        938.032500000000         0.000438078169
   46        426.557300000000         0.000887309568
   47        201.066600000000         0.001386734394
   48         97.097610000000         0.000790980133
   49         42.998720000000        -0.002988658149
   50         21.177070000000        -0.007967099903
   51         10.426750000000        -0.002889053843
   52          4.585008000000         0.010352200108
   53          2.117603000000         0.009371770634
   54          0.349225000000        -0.000165615126
   55   11718110.000000000000         0.000000001614
   56    1754604.000000000000         0.000000014525
   57     399281.299999999988         0.000000075048
   58     113084.600000000006         0.000000315523
   59      36885.930000000000         0.000001153961
   60      13312.209999999999         0.000003743513
   61       5189.988000000000         0.000011136930
   62       2151.660000000000         0.000029858529
   63        938.032500000000         0.000072563142
   64        426.557300000000         0.000147691628
   65        201.066600000000         0.000232050184
   66         97.097610000000         0.000135024691
   67         42.998720000000        -0.000526472344
   68         21.177070000000        -0.001480315216
   69         10.426750000000        -0.000558567782
   70          4.585008000000         0.002546810468
   71          2.117603000000         0.004060247582
   72          0.349225000000        -0.005787210181
   73          0.707057000000         0.008807311218
   74          0.144821000000         0.001511099458
   75          2.211600000000        -0.027058172078
   76         10.467400000000         0.008030138017
 S 76
    1   11718110.000000000000        -0.000000501492
    2    1754604.000000000000        -0.000003922387
    3     399281.299999999988        -0.000020641788
    4     113084.600000000006        -0.000087161180
    5      36885.930000000000        -0.000316450695
    6      13312.209999999999        -0.001022390880
    7       5189.988000000000        -0.002967089075
    8       2151.660000000000        -0.007651915188
    9        938.032500000000        -0.016738421189
   10        426.557300000000        -0.028206810390
   11        201.066600000000        -0.029940299664
   12         97.097610000000        -0.014407251415
   13         42.998720000000        -0.001597925116
   14         21.177070000000         0.000123519383
   15         10.426750000000        -0.000058853722
   16          4.585008000000         0.000030340294
   17          2.117603000000        -0.000010844774
   18          0.349225000000        -0.000003277611
   19   11718110.000000000000         0.000002285505
   20    1754604.000000000000         0.000017522209
   21     399281.299999999988         0.000092182055
   22     113084.600000000006         0.000388916850
   23      36885.930000000000         0.001419171935
   24      13312.209999999999         0.004605293555
   25       5189.988000000000         0.013640912524
   26       2151.660000000000         0.036440099477
   27        938.032500000000         0.087189367887
   28        426.557300000000         0.173337180134
   29        201.066600000000         0.256796603066
   30         97.097610000000         0.138472301828
   31         42.998720000000        -0.421392359577
   32         21.177070000000        -0.755264333890
   33         10.426750000000        -0.307886157849
   34          4.585008000000        -0.021869875028
   35          2.117603000000        -0.000467893762
   36          0.349225000000         0.000146399324
   37   11718110.000000000000        -0.000000000199
   38    1754604.000000000000        -0.000000001565
   39     399281.299999999988        -0.000000008311
   40     113084.600000000006        -0.000000034950
   41      36885.930000000000        -0.000000127818
   42      13312.209999999999        -0.000000414306
   43       5189.988000000000        -0.000001232898
   44       2151.660000000000        -0.000003300470
   45        938.032500000000        -0.000008014167
   46        426.557300000000        -0.000016232370
   47        201.066600000000        -0.000025368808
   48         97.097610000000        -0.000014470127
   49         42.998720000000         0.000054674273
   50         21.177070000000         0.000145749487
   51         10.426750000000         0.000052852119
   52          4.585008000000        -0.000189382319
   53          2.117603000000        -0.000171446420
   54          0.349225000000         0.000003029750
   55   11718110.000000000000         0.000000003211
   56    1754604.000000000000         0.000000028900
   57     399281.299999999988         0.000000149318
   58     113084.600000000006         0.000000627779
   59      36885.930000000000         0.000002295970
   60      13312.209999999999         0.000007448255
   61       5189.988000000000         0.000022158519
   62       2151.660000000000         0.000059407823
   63        938.032500000000         0.000144374771
   64        426.557300000000         0.000293853660
   65        201.066600000000         0.000461697098
   66         97.097610000000         0.000268650973
   67         42.998720000000        -0.001047492179
   68         21.177070000000        -0.002945299272
   69         10.426750000000        -0.001111350652
   70          4.585008000000         0.005067244419
   71          2.117603000000         0.008078444453
   72          0.349225000000        -0.011514484040
   73          0.707057000000         0.016415020990
   74          0.144821000000         0.002872183955
   75          2.211600000000        -0.021507324408
   76         10.467400000000         0.313496278871
 S 76
    1   11718110.000000000000        -0.000000800512
    2    1754604.000000000000        -0.000006261145
    3     399281.299999999988        -0.000032949635
    4     113084.600000000006        -0.000139131797
    5      36885.930000000000        -0.000505137195
    6      13312.209999999999        -0.001632000401
    7       5189.988000000000        -0.004736241933
    8       2151.660000000000        -0.012214436663
    9        938.032500000000        -0.026718851482
   10        426.557300000000        -0.045025368227
   11        201.066600000000        -0.047792465669
   12         97.097610000000        -0.022997701304
   13         42.998720000000        -0.002550701967
   14         21.177070000000         0.000197168898
   15         10.426750000000        -0.000093945769
   16          4.585008000000         0.000048430960
   17          2.117603000000        -0.000017311066
   18          0.349225000000        -0.000005231916
   19   11718110.000000000000         0.000000175929
   20    1754604.000000000000         0.000001348786
   21     399281.299999999988         0.000007095787
   22     113084.600000000006         0.000029937183
   23      36885.930000000000         0.000109241884
   24      13312.209999999999         0.000354496119
   25       5189.988000000000         0.001050020047
   26       2151.660000000000         0.002805005523
   27        938.032500000000         0.006711470660
   28        426.557300000000         0.013342766749
   29        201.066600000000         0.019767121942
   30         97.097610000000         0.010659015124
   31         42.998720000000        -0.032437010683
   32         21.177070000000        -0.058137070381
   33         10.426750000000        -0.023699780891
   34          4.585008000000        -0.001683450954
   35          2.117603000000        -0.000036016493
   36          0.349225000000         0.000011269204
   37   11718110.000000000000         0.000001304793
   38    1754604.000000000000         0.000010251949
   39     399281.299999999988         0.000054428527
   40     113084.600000000006         0.000228898051
   41      36885.930000000000         0.000837118200
   42      13312.209999999999         0.002713411185
   43       5189.988000000000         0.008074621083
   44       2151.660000000000         0.021615767536
   45        938.032500000000         0.052487180630
   46        426.557300000000         0.106310656154
   47        201.066600000000         0.166147924703
   48         97.097610000000         0.094769198867
   49         42.998720000000        -0.358078195235
   50         21.177070000000        -0.954557066224
   51         10.426750000000        -0.346144367917
   52          4.585008000000         1.240321557915
   53          2.117603000000         1.122853985744
   54          0.349225000000        -0.019842739633
   55   11718110.000000000000         0.000000020396
   56    1754604.000000000000         0.000000183565
   57     399281.299999999988         0.000000948419
   58     113084.600000000006         0.000003987438
   59      36885.930000000000         0.000014583214
   60      13312.209999999999         0.000047308760
   61       5189.988000000000         0.000140743308
   62       2151.660000000000         0.000377338100
   63        938.032500000000         0.000917018981
   64        426.557300000000         0.001866457567
   65        201.066600000000         0.002932541465
   66         97.097610000000         0.001706378754
   67         42.998720000000        -0.006653310721
   68         21.177070000000        -0.018707529864
   69         10.426750000000        -0.007058917819
   70          4.585008000000         0.032185396985
   71          2.117603000000         0.051311505869
   72          0.349225000000        -0.073136049750
   73          0.707057000000         0.140894731761
   74          0.144821000000         0.023362596611
   75          2.211600000000        -1.545236648131
   76         10.467400000000         1.049807180661
 S 76
    1   11718110.000000000000        -0.000000470465
    2    1754604.000000000000        -0.000003679708
    3     399281.299999999988        -0.000019364675
    4     113084.600000000006        -0.000081768494
    5      36885.930000000000        -0.000296871804
    6      13312.209999999999        -0.000959135275
    7       5189.988000000000        -0.002783514456
    8       2151.660000000000        -0.007178489085
    9        938.032500000000        -0.015702810455
   10        426.557300000000        -0.026461647254
   11        201.066600000000        -0.028087885068
   12         97.097610000000        -0.013515870797
   13         42.998720000000        -0.001499061049
   14         21.177070000000         0.000115877205
   15         10.426750000000        -0.000055212426
   16          4.585008000000         0.000028463131
   17          2.117603000000        -0.000010173805
   18          0.349225000000        -0.000003074825
   19   11718110.000000000000        -0.000000851894
   20    1754604.000000000000        -0.000006531189
   21     399281.299999999988        -0.000034359732
   22     113084.600000000006        -0.000144963992
   23      36885.930000000000        -0.000528978953
   24      13312.209999999999        -0.001716566756
   25       5189.988000000000        -0.005084483035
   26       2151.660000000000        -0.013582600671
   27        938.032500000000        -0.032498768768
   28        426.557300000000        -0.064609310431
   29        201.066600000000        -0.095717787911
   30         97.097610000000        -0.051613854154
   31         42.998720000000         0.157068839772
   32         21.177070000000         0.281515528104
   33         10.426750000000         0.114760793584
   34          4.585008000000         0.008151728000
   35          2.117603000000         0.000174401668
   36          0.349225000000        -0.000054568554
   37   11718110.000000000000         0.000001642319
   38    1754604.000000000000         0.000012903933
   39     399281.299999999988         0.000068508155
   40     113084.600000000006         0.000288109637
   41      36885.930000000000         0.001053664804
   42      13312.209999999999         0.003415319205
   43       5189.988000000000         0.010163372442
   44       2151.660000000000         0.027207356708
   45        938.032500000000         0.066064618967
   46        426.557300000000         0.133811206979
   47        201.066600000000         0.209127242233
   48         97.097610000000         0.119284193547
   49         42.998720000000        -0.450706234261
   50         21.177070000000        -1.201482878404
   51         10.426750000000        -0.435685352111
   52          4.585008000000         1.561169225268
   53          2.117603000000         1.413315019662
   54          0.349225000000        -0.024975680107
   55   11718110.000000000000         0.000000053762
   56    1754604.000000000000         0.000000483856
   57     399281.299999999988         0.000002499923
   58     113084.600000000006         0.000010510429
   59      36885.930000000000         0.000038439676
   60      13312.209999999999         0.000124700461
   61       5189.988000000000         0.000370983199
   62       2151.660000000000         0.000994619909
   63        938.032500000000         0.002417156748
   64        426.557300000000         0.004919767854
   65        201.066600000000         0.007729842610
   66         97.097610000000         0.004497818482
   67         42.998720000000        -0.017537363174
   68         21.177070000000        -0.049310900859
   69         10.426750000000        -0.018606496918
   70          4.585008000000         0.084837011157
   71          2.117603000000         0.135251238254
   72          0.349225000000        -0.192778230190
   73          0.707057000000         0.343756723458
   74          0.144821000000         0.053217935524
   75          2.211600000000        -4.071985235380
   76         10.467400000000         1.640729271221
 S 76
    1   11718110.000000000000        -0.000000698316
    2    1754604.000000000000        -0.000005461827
    3     399281.299999999988        -0.000028743176
    4     113084.600000000006        -0.000121369776
    5      36885.930000000000        -0.000440649727
    6      13312.209999999999        -0.001423653885
    7       5189.988000000000        -0.004131597777
    8       2151.660000000000        -0.010655101677
    9        938.032500000000        -0.023307835399
   10        426.557300000000        -0.039277282264
   11        201.066600000000        -0.041691122984
   12         97.097610000000        -0.020061739440
   13         42.998720000000        -0.002225071001
   14         21.177070000000         0.000171997670
   15         10.426750000000        -0.000081952345
   16          4.585008000000         0.000042248105
   17          2.117603000000        -0.000015101079
   18          0.349225000000        -0.000004563992
   19   11718110.000000000000        -0.000000028787
   20    1754604.000000000000        -0.000000220697
   21     399281.299999999988        -0.000001161060
   22     113084.600000000006        -0.000004898521
   23      36885.930000000000        -0.000017874885
   24      13312.209999999999        -0.000058005018
   25       5189.988000000000        -0.000171811278
   26       2151.660000000000        -0.000458973699
   27        938.032500000000        -0.001098175561
   28        426.557300000000        -0.002183232425
   29        201.066600000000        -0.003234428239
   30         97.097610000000        -0.001744099096
   31         42.998720000000         0.005307559879
   32         21.177070000000         0.009512774937
   33         10.426750000000         0.003877916108
   34          4.585008000000         0.000275457465
   35          2.117603000000         0.000005893259
   36          0.349225000000        -0.000001843942
   37   11718110.000000000000         0.000000446748
   38    1754604.000000000000         0.000003510165
   39     399281.299999999988         0.000018635787
   40     113084.600000000006         0.000078372421
   41      36885.930000000000         0.000286620963
   42      13312.209999999999         0.000929045059
   43       5189.988000000000         0.002764670117
   44       2151.660000000000         0.007401024264
   45        938.032500000000         0.017971089703
   46        426.557300000000         0.036399713515
   47        201.066600000000         0.056887400370
   48         97.097610000000         0.032448033091
   49         42.998720000000        -0.122602420058
   50         21.177070000000        -0.326830865323
   51         10.426750000000        -0.118516396029
   52          4.585008000000         0.424673791014
   53          2.117603000000         0.384454060189
   54          0.349225000000        -0.006793957108
   55   11718110.000000000000         0.000000361441
   56    1754604.000000000000         0.000003252965
   57     399281.299999999988         0.000016806988
   58     113084.600000000006         0.000070661639
   59      36885.930000000000         0.000258430034
   60      13312.209999999999         0.000838361489
   61       5189.988000000000         0.002494120912
   62       2151.660000000000         0.006686831959
   63        938.032500000000         0.016250550433
   64        426.557300000000         0.033075610711
   65        201.066600000000         0.051967749823
   66         97.097610000000         0.030238844103
   67         42.998720000000        -0.117903733363
   68         21.177070000000        -0.331517301026
   69         10.426750000000        -0.125091522003
   70          4.585008000000         0.570359423092
   71          2.117603000000         0.909294388985
   72          0.349225000000        -1.296048489409
   73          0.707057000000         3.372167511499
   74          0.144821000000         0.272915849873
   75          2.211600000000        -4.659089386974
   76         10.467400000000         1.461561326218
 S 76
    1   11718110.000000000000         0.000000794626
    2    1754604.000000000000         0.000006215111
    3     399281.299999999988         0.000032707377
    4     113084.600000000006         0.000138108850
    5      36885.930000000000         0.000501423245
    6      13312.209999999999         0.001620001348
    7       5189.988000000000         0.004701419382
    8       2151.660000000000         0.012124631739
    9        938.032500000000         0.026522404892
   10        426.557300000000         0.044694325554
   11        201.066600000000         0.047441078301
   12         97.097610000000         0.022828613947
   13         42.998720000000         0.002531948291
   14         21.177070000000        -0.000195719241
   15         10.426750000000         0.000093255046
   16          4.585008000000        -0.000048074878
   17          2.117603000000         0.000017183789
   18          0.349225000000         0.000005193449
   19   11718110.000000000000        -0.000000988137
   20    1754604.000000000000        -0.000007575721
   21     399281.299999999988        -0.000039854878
   22     113084.600000000006        -0.000168148059
   23      36885.930000000000        -0.000613578471
   24      13312.209999999999        -0.001991096997
   25       5189.988000000000        -0.005897643578
   26       2151.660000000000        -0.015754863781
   27        938.032500000000        -0.037696291556
   28        426.557300000000        -0.074942266910
   29        201.066600000000        -0.111025918119
   30         97.097610000000        -0.059868449430
   31         42.998720000000         0.182188833699
   32         21.177070000000         0.326538260598
   33         10.426750000000         0.133114468584
   34          4.585008000000         0.009455432530
   35          2.117603000000         0.000202293698
   36          0.349225000000        -0.000063295694
   37   11718110.000000000000         0.000001694402
   38    1754604.000000000000         0.000013313160
   39     399281.299999999988         0.000070680775
   40     113084.600000000006         0.000297246547
   41      36885.930000000000         0.001087080003
   42      13312.209999999999         0.003523630285
   43       5189.988000000000         0.010485686634
   44       2151.660000000000         0.028070192074
   45        938.032500000000         0.068159746779
   46        426.557300000000         0.138054803409
   47        201.066600000000         0.215759359517
   48         97.097610000000         0.123067090281
   49         42.998720000000        -0.464999621265
   50         21.177070000000        -1.239585878660
   51         10.426750000000        -0.449502377207
   52          4.585008000000         1.610679070526
   53          2.117603000000         1.458135918507
   54          0.349225000000        -0.025767741619
   55   11718110.000000000000        -0.000001330170
   56    1754604.000000000000        -0.000011971526
   57     399281.299999999988        -0.000061852886
   58     113084.600000000006        -0.000260048155
   59      36885.930000000000        -0.000951071259
   60      13312.209999999999        -0.003085328372
   61       5189.988000000000        -0.009178835279
   62       2151.660000000000        -0.024608802561
   63        938.032500000000        -0.059805090001
   64        426.557300000000        -0.121724484571
   65        201.066600000000        -0.191251119045
   66         97.097610000000        -0.111284648518
   67         42.998720000000         0.433907972194
   68         21.177070000000         1.220046182872
   69         10.426750000000         0.460360389811
   70          4.585008000000        -2.099030231165
   71          2.117603000000        -3.346374819516
   72          0.349225000000         4.769702840319
   73          0.707057000000        -5.130692929857
   74          0.144821000000        -0.759233378902
   75          2.211600000000         4.229975285596
   76         10.467400000000        -0.847111283776
 S 76
    1   11718110.000000000000         0.000000602433
    2    1754604.000000000000         0.000004711888
    3     399281.299999999988         0.000024796580
    4     113084.600000000006         0.000104705039
    5      36885.930000000000         0.000380146099
    6      13312.209999999999         0.001228178387
    7       5189.988000000000         0.003564306708
    8       2151.660000000000         0.009192097690
    9        938.032500000000         0.020107541574
   10        426.557300000000         0.033884295668
   11        201.066600000000         0.035966702798
   12         97.097610000000         0.017307152420
   13         42.998720000000         0.001919556531
   14         21.177070000000        -0.000148381445
   15         10.426750000000         0.000070699838
   16          4.585008000000        -0.000036447208
   17          2.117603000000         0.000013027618
   18          0.349225000000         0.000003937331
   19   11718110.000000000000        -0.000001118751
   20    1754604.000000000000        -0.000008577089
   21     399281.299999999988        -0.000045122944
   22     113084.600000000006        -0.000190374076
   23      36885.930000000000        -0.000694682025
   24      13312.209999999999        -0.002254282638
   25       5189.988000000000        -0.006677201332
   26       2151.660000000000        -0.017837360979
   27        938.032500000000        -0.042679033562
   28        426.557300000000        -0.084848227573
   29        201.066600000000        -0.125701460011
   30         97.097610000000        -0.067781934430
   31         42.998720000000         0.206270776965
   32         21.177070000000         0.369700487976
   33         10.426750000000         0.150709702140
   34          4.585008000000         0.010705263187
   35          2.117603000000         0.000229033127
   36          0.349225000000        -0.000071662197
   37   11718110.000000000000         0.000002273256
   38    1754604.000000000000         0.000017861299
   39     399281.299999999988         0.000094827258
   40     113084.600000000006         0.000398794087
   41      36885.930000000000         0.001458456224
   42      13312.209999999999         0.004727398631
   43       5189.988000000000         0.014067883581
   44       2151.660000000000         0.037659736362
   45        938.032500000000         0.091444977911
   46        426.557300000000         0.185218094915
   47        201.066600000000         0.289468649717
   48         97.097610000000         0.165110169627
   49         42.998720000000        -0.623856192325
   50         21.177070000000        -1.663062271358
   51         10.426750000000        -0.603064666425
   52          4.585008000000         2.160931033154
   53          2.117603000000         1.956274974026
   54          0.349225000000        -0.034570705945
   55   11718110.000000000000        -0.000001534162
   56    1754604.000000000000        -0.000013807459
   57     399281.299999999988        -0.000071338538
   58     113084.600000000006        -0.000299928691
   59      36885.930000000000        -0.001096925902
   60      13312.209999999999        -0.003558488993
   61       5189.988000000000        -0.010586485576
   62       2151.660000000000        -0.028382765945
   63        938.032500000000        -0.068976695131
   64        426.557300000000        -0.140391940921
   65        201.066600000000        -0.220581059765
   66         97.097610000000        -0.128351069673
   67         42.998720000000         0.500451348076
   68         21.177070000000         1.407150354594
   69         10.426750000000         0.530960462693
   70          4.585008000000        -2.420933875744
   71          2.117603000000        -3.859569072050
   72          0.349225000000         5.501176215529
   73          0.707057000000        -3.649766222600
   74          0.144821000000        -3.105298068855
   75          2.211600000000         3.074727709078
   76         10.467400000000        -0.380323010751
 S 76
    1   11718110.000000000000        -0.000018495220
    2    1754604.000000000000        -0.000144659044
    3     399281.299999999988        -0.000761276473
    4     113084.600000000006        -0.003214535321
    5      36885.930000000000        -0.011670814202
    6      13312.209999999999        -0.037706139316
    7       5189.988000000000        -0.109427300436
    8       2151.660000000000        -0.282205353775
    9        938.032500000000        -0.617318927034
   10        426.557300000000        -1.040277199872
   11        201.066600000000        -1.104208900852
   12         97.097610000000        -0.531344556595
   13         42.998720000000        -0.058932046641
   14         21.177070000000         0.004555438783
   15         10.426750000000        -0.002170546196
   16          4.585008000000         0.001118960821
   17          2.117603000000        -0.000399959136
   18          0.349225000000        -0.000120879475
   19   11718110.000000000000         0.000025906844
   20    1754604.000000000000         0.000198619141
   21     399281.299999999988         0.001044909392
   22     113084.600000000006         0.004408481361
   23      36885.930000000000         0.016086711124
   24      13312.209999999999         0.052202291533
   25       5189.988000000000         0.154623561730
   26       2151.660000000000         0.413058727642
   27        938.032500000000         0.988315890472
   28        426.557300000000         1.964825456228
   29        201.066600000000         2.910861376585
   30         97.097610000000         1.569622301477
   31         42.998720000000        -4.776600349202
   32         21.177070000000        -8.561132633297
   33         10.426750000000        -3.489975780698
   34          4.585008000000        -0.247901155111
   35          2.117603000000        -0.005303706763
   36          0.349225000000         0.001659477313
   37   11718110.000000000000        -0.000009590584
   38    1754604.000000000000        -0.000075354585
   39     399281.299999999988        -0.000400064341
   40     113084.600000000006        -0.001682462364
   41      36885.930000000000        -0.006153044362
   42      13312.209999999999        -0.019944303447
   43       5189.988000000000        -0.059350640998
   44       2151.660000000000        -0.158881716645
   45        938.032500000000        -0.385794922447
   46        426.557300000000        -0.781411972490
   47        201.066600000000        -1.221232021922
   48         97.097610000000        -0.696579151111
   49         42.998720000000         2.631971233798
   50         21.177070000000         7.016251681196
   51         10.426750000000         2.544254386949
   52          4.585008000000        -9.116697706058
   53          2.117603000000        -8.253279394156
   54          0.349225000000         0.145849483741
   55   11718110.000000000000        -0.000000871926
   56    1754604.000000000000        -0.000007847333
   57     399281.299999999988        -0.000040544555
   58     113084.600000000006        -0.000170461518
   59      36885.930000000000        -0.000623427035
   60      13312.209999999999        -0.002022432177
   61       5189.988000000000        -0.006016724829
   62       2151.660000000000        -0.016131065531
   63        938.032500000000        -0.039202225442
   64        426.557300000000        -0.079790377138
   65        201.066600000000        -0.125365073185
   66         97.097610000000        -0.072947066535
   67         42.998720000000         0.284426595575
   68         21.177070000000         0.799740047374
   69         10.426750000000         0.301766150434
   70          4.585008000000        -1.375913928570
   71          2.117603000000        -2.193548075691
   72          0.349225000000         3.126539330257
   73          0.707057000000        -4.768290296228
   74          0.144821000000        -0.869884701097
   75          2.211600000000        18.757112682237
   76         10.467400000000         7.372936541641
 P 37
    1       9366.308999999999         0.000508862359
    2       2219.554000000000         0.004419080513
    3        719.452900000000         0.023971253715
    4        273.464500000000         0.093115677902
    5        114.752300000000         0.257424218587
    6         51.155570000000         0.462865819991
    7         23.682680000000         0.436139902256
    8         10.875480000000         0.140814277778
    9          4.955131000000         0.006159026565
   10          2.217267000000         0.002109415484
   11          0.322154000000         0.000264473724
   12       9366.308999999999        -0.000018557583
   13       2219.554000000000        -0.000162109118
   14        719.452900000000        -0.000887624296
   15        273.464500000000        -0.003544994645
   16        114.752300000000        -0.010251284328
   17         51.155570000000        -0.019777916622
   18         23.682680000000        -0.017394076414
   19         10.875480000000         0.019287413811
   20          4.955131000000         0.058670931267
   21          2.217267000000         0.042222676592
   22          0.322154000000        -0.000515728176
   23       9366.308999999999        -0.000000547280
   24       2219.554000000000        -0.000004815129
   25        719.452900000000        -0.000026222487
   26        273.464500000000        -0.000105867065
   27        114.752300000000        -0.000305484687
   28         51.155570000000        -0.000602877609
   29         23.682680000000        -0.000506092346
   30         10.875480000000         0.000722316290
   31          4.955131000000         0.002352864515
   32          2.217267000000         0.001711559830
   33          0.322154000000        -0.006770048717
   34          0.806410000000         0.011551211683
   35          0.117619000000         0.002197829836
   36          2.691200000000        -0.099849358627
   37         13.832700000000        -0.248070778706
 P 37
    1       9366.308999999999         0.000121309432
    2       2219.554000000000         0.001053479664
    3        719.452900000000         0.005714588869
    4        273.464500000000         0.022198163801
    5        114.752300000000         0.061368236793
    6         51.155570000000         0.110344160314
    7         23.682680000000         0.103972877701
    8         10.875480000000         0.033569195587
    9          4.955131000000         0.001468271333
   10          2.217267000000         0.000502870746
   11          0.322154000000         0.000063048792
   12       9366.308999999999         0.000188341489
   13       2219.554000000000         0.001645250509
   14        719.452900000000         0.009008526729
   15        273.464500000000         0.035978261475
   16        114.752300000000         0.104040605136
   17         51.155570000000         0.200726694120
   18         23.682680000000         0.176533025324
   19         10.875480000000        -0.195748565759
   20          4.955131000000        -0.595453115671
   21          2.217267000000        -0.428519264747
   22          0.322154000000         0.005234141386
   23       9366.308999999999        -0.000001943252
   24       2219.554000000000        -0.000017097283
   25        719.452900000000        -0.000093109303
   26        273.464500000000        -0.000375906711
   27        114.752300000000        -0.001084697530
   28         51.155570000000        -0.002140663284
   29         23.682680000000        -0.001797003718
   30         10.875480000000         0.002564759314
   31          4.955131000000         0.008354416566
   32          2.217267000000         0.006077308620
   33          0.322154000000        -0.024038701244
   34          0.806410000000         0.047054047175
   35          0.117619000000         0.005190392376
   36          2.691200000000         0.540349698102
   37         13.832700000000        -0.716454832759
 P 37
    1       9366.308999999999         0.000185799797
    2       2219.554000000000         0.001613529177
    3        719.452900000000         0.008752571303
    4        273.464500000000         0.033999123282
    5        114.752300000000         0.093992740434
    6         51.155570000000         0.169005181847
    7         23.682680000000         0.159246806111
    8         10.875480000000         0.051415208457
    9          4.955131000000         0.002248831864
   10          2.217267000000         0.000770206250
   11          0.322154000000         0.000096566711
   12       9366.308999999999         0.000043015154
   13       2219.554000000000         0.000375757378
   14        719.452900000000         0.002057449831
   15        273.464500000000         0.008217044832
   16        114.752300000000         0.023761746169
   17         51.155570000000         0.045843800589
   18         23.682680000000         0.040318228952
   19         10.875480000000        -0.044706850045
   20          4.955131000000        -0.135995035510
   21          2.217267000000        -0.097869153914
   22          0.322154000000         0.001195421142
   23       9366.308999999999         0.000001436551
   24       2219.554000000000         0.000012639186
   25        719.452900000000         0.000068831158
   26        273.464500000000         0.000277889461
   27        114.752300000000         0.000801863875
   28         51.155570000000         0.001582487752
   29         23.682680000000         0.001328437029
   30         10.875480000000        -0.001896001222
   31          4.955131000000        -0.006176011888
   32          2.217267000000        -0.004492657265
   33          0.322154000000         0.017770637063
   34          0.806410000000        -0.025008827953
   35          0.117619000000        -0.005928085227
   36          2.691200000000         1.341315878401
   37         13.832700000000        -1.033812448109
 P 37
    1       9366.308999999999         0.000478817566
    2       2219.554000000000         0.004158164456
    3        719.452900000000         0.022555917426
    4        273.464500000000         0.087617842888
    5        114.752300000000         0.242225103740
    6         51.155570000000         0.435536803338
    7         23.682680000000         0.410388865699
    8         10.875480000000         0.132500171236
    9          4.955131000000         0.005795378760
   10          2.217267000000         0.001984869129
   11          0.322154000000         0.000248858385
   12       9366.308999999999        -0.000306001268
   13       2219.554000000000        -0.002673063400
   14        719.452900000000        -0.014636289707
   15        273.464500000000        -0.058454425895
   16        114.752300000000        -0.169036345660
   17         51.155570000000        -0.326123697629
   18         23.682680000000        -0.286815877802
   19         10.875480000000         0.318035657144
   20          4.955131000000         0.967441688305
   21          2.217267000000         0.696221734419
   22          0.322154000000        -0.008503988720
   23       9366.308999999999         0.000036933858
   24       2219.554000000000         0.000324954545
   25        719.452900000000         0.001769654895
   26        273.464500000000         0.007144561577
   27        114.752300000000         0.020615988138
   28         51.155570000000         0.040685894126
   29         23.682680000000         0.034154228523
   30         10.875480000000        -0.048746351976
   31          4.955131000000        -0.158785788665
   32          2.217267000000        -0.115506598759
   33          0.322154000000         0.456884583796
   34          0.806410000000        -1.607919879185
   35          0.117619000000        -0.113679906865
   36          2.691200000000        -0.128287021091
   37         13.832700000000        -1.300336789872
 P 37
    1       9366.308999999999         0.000813365963
    2       2219.554000000000         0.007063461497
    3        719.452900000000         0.038315669320
    4        273.464500000000         0.148836167077
    5        114.752300000000         0.411467057648
    6         51.155570000000         0.739845062298
    7         23.682680000000         0.697126336012
    8         10.875480000000         0.225077643706
    9          4.955131000000         0.009844592528
   10          2.217267000000         0.003371691239
   11          0.322154000000         0.000422734993
   12       9366.308999999999        -0.000724193303
   13       2219.554000000000        -0.006326165340
   14        719.452900000000        -0.034638755165
   15        273.464500000000        -0.138340288923
   16        114.752300000000        -0.400047328135
   17         51.155570000000        -0.771815749854
   18         23.682680000000        -0.678788488555
   19         10.875480000000         0.752674310341
   20          4.955131000000         2.289581338393
   21          2.217267000000         1.647702708886
   22          0.322154000000        -0.020125837155
   23       9366.308999999999         0.000145099784
   24       2219.554000000000         0.001276629001
   25        719.452900000000         0.006952334717
   26        273.464500000000         0.028068401144
   27        114.752300000000         0.080992768943
   28         51.155570000000         0.159840178419
   29         23.682680000000         0.134179624120
   30         10.875480000000        -0.191506805109
   31          4.955131000000        -0.623811995185
   32          2.217267000000        -0.453783694590
   33          0.322154000000         1.794934459712
   34          0.806410000000        -1.067704549766
   35          0.117619000000        -0.338431397936
   36          2.691200000000        -2.259021352772
   37         13.832700000000        -1.640510682082
 P 37
    1       9366.308999999999         0.001570836682
    2       2219.554000000000         0.013641515528
    3        719.452900000000         0.073998251176
    4        273.464500000000         0.287444178082
    5        114.752300000000         0.794657726787
    6         51.155570000000         1.428847302483
    7         23.682680000000         1.346345519433
    8         10.875480000000         0.434687748080
    9          4.955131000000         0.019012655749
   10          2.217267000000         0.006511676805
   11          0.322154000000         0.000816419254
   12       9366.308999999999        -0.001108731813
   13       2219.554000000000        -0.009685288074
   14        719.452900000000        -0.053031545061
   15        273.464500000000        -0.211797428371
   16        114.752300000000        -0.612467965661
   17         51.155570000000        -1.181641243256
   18         23.682680000000        -1.039217551178
   19         10.875480000000         1.152335914377
   20          4.955131000000         3.505323310318
   21          2.217267000000         2.522614338735
   22          0.322154000000        -0.030812430611
   23       9366.308999999999        -0.000042471214
   24       2219.554000000000        -0.000373673773
   25        719.452900000000        -0.002034972686
   26        273.464500000000        -0.008215719179
   27        114.752300000000        -0.023706866726
   28         51.155570000000        -0.046785779233
   29         23.682680000000        -0.039274845247
   30         10.875480000000         0.056054711614
   31          4.955131000000         0.182591952653
   32          2.217267000000         0.132824074428
   33          0.322154000000        -0.525383593795
   34          0.806410000000         1.405932837865
   35          0.117619000000        -0.511737712445
   36          2.691200000000        -6.271008295692
   37         13.832700000000        -3.086309702027
 P 37
    1       9366.308999999999         0.000903483679
    2       2219.554000000000         0.007846064957
    3        719.452900000000         0.042560893197
    4        273.464500000000         0.165326622846
    5        114.752300000000         0.457055972274
    6         51.155570000000         0.821816954714
    7         23.682680000000         0.774365163339
    8         10.875480000000         0.250015352066
    9          4.955131000000         0.010935334253
   10          2.217267000000         0.003745261228
   11          0.322154000000         0.000469572350
   12       9366.308999999999        -0.000479491367
   13       2219.554000000000        -0.004188580109
   14        719.452900000000        -0.022934462363
   15        273.464500000000        -0.091595674685
   16        114.752300000000        -0.264872982495
   17         51.155570000000        -0.511022384661
   18         23.682680000000        -0.449428652068
   19         10.875480000000         0.498348758776
   20          4.955131000000         1.515941227738
   21          2.217267000000         1.090950745261
   22          0.322154000000        -0.013325399615
   23       9366.308999999999        -0.000181747514
   24       2219.554000000000        -0.001599066111
   25        719.452900000000        -0.008708280031
   26        273.464500000000        -0.035157613538
   27        114.752300000000        -0.101449044257
   28         51.155570000000        -0.200210877416
   29         23.682680000000        -0.168069258569
   30         10.875480000000         0.239875517290
   31          4.955131000000         0.781367664464
   32          2.217267000000         0.568395459450
   33          0.322154000000        -2.248279541716
   34          0.806410000000         1.754136461170
   35          0.117619000000         1.665739181668
   36          2.691200000000        -4.127820607449
   37         13.832700000000        -1.816870288165
 D 11
    1        446.161300000000         0.003826503694
    2        133.964800000000         0.033163122838
    3         51.345910000000         0.153648400508
    4         21.916910000000         0.456769124758
    5          9.893725000000         0.865722756330
    6          4.492527000000         1.055162208196
    7          2.002293000000         0.743287171522
    8          0.808409000000        -0.126897626829
    9          0.300600000000         0.032289898100
   10          2.793800000000        -1.214115089607
   11          7.471600000000        -0.836965774759
 D 11
    1        446.161300000000         0.003362680523
    2        133.964800000000         0.029143311013
    3         51.345910000000         0.135024169602
    4         21.916910000000         0.401402628117
    5          9.893725000000         0.760785637155
    6          4.492527000000         0.927262506380
    7          2.002293000000         0.653190874608
    8          0.808409000000        -0.056022435287
    9          0.300600000000         0.007546223283
   10          2.793800000000        -1.787744334863
   11          7.471600000000        -1.493156588631
 D 11
    1        446.161300000000         0.003169496208
    2        133.964800000000         0.027469042368
    3         51.345910000000         0.127267098576
    4         21.916910000000         0.378342247850
    5          9.893725000000         0.717078882725
    6          4.492527000000         0.873991739059
    7          2.002293000000         0.615665385485
    8          0.808409000000         0.685401076965
    9          0.300600000000        -0.146723590749
   10          2.793800000000        -0.530884180885
   11          7.471600000000        -2.028484015389
 D 11
    1        446.161300000000         0.003148187480
    2        133.964800000000         0.027284366213
    3         51.345910000000         0.126411473610
    4         21.916910000000         0.375798628355
    5          9.893725000000         0.712257914842
    6          4.492527000000         0.868115835855
    7          2.002293000000         0.611526227128
    8          0.808409000000        -1.048237277629
    9          0.300600000000        -0.124595241240
   10          2.793800000000         0.424949027389
   11          7.471600000000        -2.294635061197
 D 11
    1        446.161300000000         0.001335036788
    2        133.964800000000         0.011570350513
    3         51.345910000000         0.053606708217
    4         21.916910000000         0.159363124592
    5          9.893725000000         0.302043802878
    6          4.492527000000         0.368137725024
    7          2.002293000000         0.259326998482
    8          0.808409000000        -1.286220129318
    9          0.300600000000         1.416457102205
   10          2.793800000000         0.405471753308
   11          7.471600000000        -1.026794182107
 F 3
    1          0.662200000000        -0.001043125416
    2          3.951800000000         0.552006906590
    3         11.866400000000         0.593884161953
 F 3
    1          0.662200000000        -0.411364148607
    2          3.951800000000        -0.841989505014
    3         11.866400000000         0.881782079017
 F 3
    1          0.662200000000         0.939651800647
    2          3.951800000000        -0.658375178787
    3         11.866400000000         0.508498160197
 G 1
    1          8.899500000000         1.000000000000
 end
  // -----------------------------------------------
  // The basis set
  // -----------------------------------------------
  BAS[ATNO] = new BFNGauss[NSH];
  // Basis function   1 L = s
  InitBFNGauss(BAS[ATNO][  0]);
  BAS[ATNO][  0].l  = 0;
  BAS[ATNO][  0].ng = 76;
  BAS[ATNO][  0].a[  0] =  11718110.000000000000;     BAS[ATNO][  0].d[  0] =         0.000005598864;
  BAS[ATNO][  0].a[  1] =   1754604.000000000000;     BAS[ATNO][  0].d[  1] =         0.000043791117;
  BAS[ATNO][  0].a[  2] =    399281.299999999988;     BAS[ATNO][  0].d[  2] =         0.000230453252;
[...]
  BAS[ATNO][ 12].a[ 28] =        23.682680000000;     BAS[ATNO][ 12].d[ 28] =         0.134179624120;
  BAS[ATNO][ 12].a[ 29] =        10.875480000000;     BAS[ATNO][ 12].d[ 29] =        -0.191506805109;
  BAS[ATNO][ 12].a[ 30] =         4.955131000000;     BAS[ATNO][ 12].d[ 30] =        -0.623811995185;
  BAS[ATNO][ 12].a[ 31] =         2.217267000000;     BAS[ATNO][ 12].d[ 31] =        -0.453783694590;
  BAS[ATNO][ 12].a[ 32] =         0.322154000000;     BAS[ATNO][ 12].d[ 32] =         1.794934459712;
  BAS[ATNO][ 12].a[ 33] =         0.806410000000;     BAS[ATNO][ 12].d[ 33] =        -1.067704549766;
  BAS[ATNO][ 12].a[ 34] =         0.117619000000;     BAS[ATNO][ 12].d[ 34] =        -0.338431397936;
  BAS[ATNO][ 12].a[ 35] =         2.691200000000;     BAS[ATNO][ 12].d[ 35] =        -2.259021352772;
  BAS[ATNO][ 12].a[ 36] =        13.832700000000;     BAS[ATNO][ 12].d[ 36] =        -1.640510682082;

  // Basis function  14 L = p
  InitBFNGauss(BAS[ATNO][ 13]);
  BAS[ATNO][ 13].l  = 1;
  BAS[ATNO][ 13].ng = 37;
  BAS[ATNO][ 13].a[  0] =      9366.308999999999;     BAS[ATNO][ 13].d[  0] =        -0.001570836682;
  BAS[ATNO][ 13].a[  1] =      2219.554000000000;     BAS[ATNO][ 13].d[  1] =        -0.013641515528;
  BAS[ATNO][ 13].a[  2] =       719.452900000000;     BAS[ATNO][ 13].d[  2] =        -0.073998251176;
  BAS[ATNO][ 13].a[  3] =       273.464500000000;     BAS[ATNO][ 13].d[  3] =        -0.287444178082;
  BAS[ATNO][ 13].a[  4] =       114.752300000000;     BAS[ATNO][ 13].d[  4] =        -0.794657726787;
  BAS[ATNO][ 13].a[  5] =        51.155570000000;     BAS[ATNO][ 13].d[  5] =        -1.428847302483;
  BAS[ATNO][ 13].a[  6] =        23.682680000000;     BAS[ATNO][ 13].d[  6] =        -1.346345519433;
  BAS[ATNO][ 13].a[  7] =        10.875480000000;     BAS[ATNO][ 13].d[  7] =        -0.434687748080;
  BAS[ATNO][ 13].a[  8] =         4.955131000000;     BAS[ATNO][ 13].d[  8] =        -0.019012655749;
  BAS[ATNO][ 13].a[  9] =         2.217267000000;     BAS[ATNO][ 13].d[  9] =        -0.006511676805;
  BAS[ATNO][ 13].a[ 10] =         0.322154000000;     BAS[ATNO][ 13].d[ 10] =        -0.000816419254;
  BAS[ATNO][ 13].a[ 11] =      9366.308999999999;     BAS[ATNO][ 13].d[ 11] =         0.001108731813;
  BAS[ATNO][ 13].a[ 12] =      2219.554000000000;     BAS[ATNO][ 13].d[ 12] =         0.009685288074;
  BAS[ATNO][ 13].a[ 13] =       719.452900000000;     BAS[ATNO][ 13].d[ 13] =         0.053031545061;
  BAS[ATNO][ 13].a[ 14] =       273.464500000000;     BAS[ATNO][ 13].d[ 14] =         0.211797428371;
  BAS[ATNO][ 13].a[ 15] =       114.752300000000;     BAS[ATNO][ 13].d[ 15] =         0.612467965661;
  BAS[ATNO][ 13].a[ 16] =        51.155570000000;     BAS[ATNO][ 13].d[ 16] =         1.181641243256;
  BAS[ATNO][ 13].a[ 17] =        23.682680000000;     BAS[ATNO][ 13].d[ 17] =         1.039217551178;
  BAS[ATNO][ 13].a[ 18] =        10.875480000000;     BAS[ATNO][ 13].d[ 18] =        -1.152335914377;
  BAS[ATNO][ 13].a[ 19] =         4.955131000000;     BAS[ATNO][ 13].d[ 19] =        -3.505323310318;
  BAS[ATNO][ 13].a[ 20] =         2.217267000000;     BAS[ATNO][ 13].d[ 20] =        -2.522614338735;
  BAS[ATNO][ 13].a[ 21] =         0.322154000000;     BAS[ATNO][ 13].d[ 21] =         0.030812430611;
  BAS[ATNO][ 13].a[ 22] =      9366.308999999999;     BAS[ATNO][ 13].d[ 22] =         0.000042471214;
  BAS[ATNO][ 13].a[ 23] =      2219.554000000000;     BAS[ATNO][ 13].d[ 23] =         0.000373673773;
  BAS[ATNO][ 13].a[ 24] =       719.452900000000;     BAS[ATNO][ 13].d[ 24] =         0.002034972686;
  BAS[ATNO][ 13].a[ 25] =       273.464500000000;     BAS[ATNO][ 13].d[ 25] =         0.008215719179;
  BAS[ATNO][ 13].a[ 26] =       114.752300000000;     BAS[ATNO][ 13].d[ 26] =         0.023706866726;
  BAS[ATNO][ 13].a[ 27] =        51.155570000000;     BAS[ATNO][ 13].d[ 27] =         0.046785779233;
  BAS[ATNO][ 13].a[ 28] =        23.682680000000;     BAS[ATNO][ 13].d[ 28] =         0.039274845247;
  BAS[ATNO][ 13].a[ 29] =        10.875480000000;     BAS[ATNO][ 13].d[ 29] =        -0.056054711614;
  BAS[ATNO][ 13].a[ 30] =         4.955131000000;     BAS[ATNO][ 13].d[ 30] =        -0.182591952653;
  BAS[ATNO][ 13].a[ 31] =         2.217267000000;     BAS[ATNO][ 13].d[ 31] =        -0.132824074428;
  BAS[ATNO][ 13].a[ 32] =         0.322154000000;     BAS[ATNO][ 13].d[ 32] =         0.525383593795;
  BAS[ATNO][ 13].a[ 33] =         0.806410000000;     BAS[ATNO][ 13].d[ 33] =        -1.405932837865;
  BAS[ATNO][ 13].a[ 34] =         0.117619000000;     BAS[ATNO][ 13].d[ 34] =         0.511737712445;
  BAS[ATNO][ 13].a[ 35] =         2.691200000000;     BAS[ATNO][ 13].d[ 35] =         6.271008295692;
  BAS[ATNO][ 13].a[ 36] =        13.832700000000;     BAS[ATNO][ 13].d[ 36] =         3.086309702027;

  // Basis function  15 L = p
  InitBFNGauss(BAS[ATNO][ 14]);
  BAS[ATNO][ 14].l  = 1;
  BAS[ATNO][ 14].ng = 37;
  BAS[ATNO][ 14].a[  0] =      9366.308999999999;     BAS[ATNO][ 14].d[  0] =        -0.000903483679;
  BAS[ATNO][ 14].a[  1] =      2219.554000000000;     BAS[ATNO][ 14].d[  1] =        -0.007846064957;
  BAS[ATNO][ 14].a[  2] =       719.452900000000;     BAS[ATNO][ 14].d[  2] =        -0.042560893197;
  BAS[ATNO][ 14].a[  3] =       273.464500000000;     BAS[ATNO][ 14].d[  3] =        -0.165326622846;
  BAS[ATNO][ 14].a[  4] =       114.752300000000;     BAS[ATNO][ 14].d[  4] =        -0.457055972274;
  BAS[ATNO][ 14].a[  5] =        51.155570000000;     BAS[ATNO][ 14].d[  5] =        -0.821816954714;
  BAS[ATNO][ 14].a[  6] =        23.682680000000;     BAS[ATNO][ 14].d[  6] =        -0.774365163339;
  BAS[ATNO][ 14].a[  7] =        10.875480000000;     BAS[ATNO][ 14].d[  7] =        -0.250015352066;
  BAS[ATNO][ 14].a[  8] =         4.955131000000;     BAS[ATNO][ 14].d[  8] =        -0.010935334253;
  BAS[ATNO][ 14].a[  9] =         2.217267000000;     BAS[ATNO][ 14].d[  9] =        -0.003745261228;
  BAS[ATNO][ 14].a[ 10] =         0.322154000000;     BAS[ATNO][ 14].d[ 10] =        -0.000469572350;
  BAS[ATNO][ 14].a[ 11] =      9366.308999999999;     BAS[ATNO][ 14].d[ 11] =         0.000479491367;
  BAS[ATNO][ 14].a[ 12] =      2219.554000000000;     BAS[ATNO][ 14].d[ 12] =         0.004188580109;
  BAS[ATNO][ 14].a[ 13] =       719.452900000000;     BAS[ATNO][ 14].d[ 13] =         0.022934462363;
  BAS[ATNO][ 14].a[ 14] =       273.464500000000;     BAS[ATNO][ 14].d[ 14] =         0.091595674685;
  BAS[ATNO][ 14].a[ 15] =       114.752300000000;     BAS[ATNO][ 14].d[ 15] =         0.264872982495;
  BAS[ATNO][ 14].a[ 16] =        51.155570000000;     BAS[ATNO][ 14].d[ 16] =         0.511022384661;
  BAS[ATNO][ 14].a[ 17] =        23.682680000000;     BAS[ATNO][ 14].d[ 17] =         0.449428652068;
  BAS[ATNO][ 14].a[ 18] =        10.875480000000;     BAS[ATNO][ 14].d[ 18] =        -0.498348758776;
  BAS[ATNO][ 14].a[ 19] =         4.955131000000;     BAS[ATNO][ 14].d[ 19] =        -1.515941227738;
  BAS[ATNO][ 14].a[ 20] =         2.217267000000;     BAS[ATNO][ 14].d[ 20] =        -1.090950745261;
  BAS[ATNO][ 14].a[ 21] =         0.322154000000;     BAS[ATNO][ 14].d[ 21] =         0.013325399615;
  BAS[ATNO][ 14].a[ 22] =      9366.308999999999;     BAS[ATNO][ 14].d[ 22] =         0.000181747514;
  BAS[ATNO][ 14].a[ 23] =      2219.554000000000;     BAS[ATNO][ 14].d[ 23] =         0.001599066111;
  BAS[ATNO][ 14].a[ 24] =       719.452900000000;     BAS[ATNO][ 14].d[ 24] =         0.008708280031;
  BAS[ATNO][ 14].a[ 25] =       273.464500000000;     BAS[ATNO][ 14].d[ 25] =         0.035157613538;
  BAS[ATNO][ 14].a[ 26] =       114.752300000000;     BAS[ATNO][ 14].d[ 26] =         0.101449044257;
  BAS[ATNO][ 14].a[ 27] =        51.155570000000;     BAS[ATNO][ 14].d[ 27] =         0.200210877416;
  BAS[ATNO][ 14].a[ 28] =        23.682680000000;     BAS[ATNO][ 14].d[ 28] =         0.168069258569;
  BAS[ATNO][ 14].a[ 29] =        10.875480000000;     BAS[ATNO][ 14].d[ 29] =        -0.239875517290;
  BAS[ATNO][ 14].a[ 30] =         4.955131000000;     BAS[ATNO][ 14].d[ 30] =        -0.781367664464;
  BAS[ATNO][ 14].a[ 31] =         2.217267000000;     BAS[ATNO][ 14].d[ 31] =        -0.568395459450;
  BAS[ATNO][ 14].a[ 32] =         0.322154000000;     BAS[ATNO][ 14].d[ 32] =         2.248279541716;
  BAS[ATNO][ 14].a[ 33] =         0.806410000000;     BAS[ATNO][ 14].d[ 33] =        -1.754136461170;
  BAS[ATNO][ 14].a[ 34] =         0.117619000000;     BAS[ATNO][ 14].d[ 34] =        -1.665739181668;
  BAS[ATNO][ 14].a[ 35] =         2.691200000000;     BAS[ATNO][ 14].d[ 35] =         4.127820607449;
  BAS[ATNO][ 14].a[ 36] =        13.832700000000;     BAS[ATNO][ 14].d[ 36] =         1.816870288165;

  // Basis function  16 L = d
  InitBFNGauss(BAS[ATNO][ 15]);
  BAS[ATNO][ 15].l  = 2;
  BAS[ATNO][ 15].ng = 11;
  BAS[ATNO][ 15].a[  0] =       446.161300000000;     BAS[ATNO][ 15].d[  0] =        -0.003826503694;
  BAS[ATNO][ 15].a[  1] =       133.964800000000;     BAS[ATNO][ 15].d[  1] =        -0.033163122838;
  BAS[ATNO][ 15].a[  2] =        51.345910000000;     BAS[ATNO][ 15].d[  2] =        -0.153648400508;
  BAS[ATNO][ 15].a[  3] =        21.916910000000;     BAS[ATNO][ 15].d[  3] =        -0.456769124758;
  BAS[ATNO][ 15].a[  4] =         9.893725000000;     BAS[ATNO][ 15].d[  4] =        -0.865722756330;
  BAS[ATNO][ 15].a[  5] =         4.492527000000;     BAS[ATNO][ 15].d[  5] =        -1.055162208196;
  BAS[ATNO][ 15].a[  6] =         2.002293000000;     BAS[ATNO][ 15].d[  6] =        -0.743287171522;
  BAS[ATNO][ 15].a[  7] =         0.808409000000;     BAS[ATNO][ 15].d[  7] =         0.126897626829;
  BAS[ATNO][ 15].a[  8] =         0.300600000000;     BAS[ATNO][ 15].d[  8] =        -0.032289898100;
  BAS[ATNO][ 15].a[  9] =         2.793800000000;     BAS[ATNO][ 15].d[  9] =         1.214115089607;
  BAS[ATNO][ 15].a[ 10] =         7.471600000000;     BAS[ATNO][ 15].d[ 10] =         0.836965774759;

  // Basis function  17 L = d
  InitBFNGauss(BAS[ATNO][ 16]);
  BAS[ATNO][ 16].l  = 2;
  BAS[ATNO][ 16].ng = 11;
  BAS[ATNO][ 16].a[  0] =       446.161300000000;     BAS[ATNO][ 16].d[  0] =        -0.003362680523;
  BAS[ATNO][ 16].a[  1] =       133.964800000000;     BAS[ATNO][ 16].d[  1] =        -0.029143311013;
  BAS[ATNO][ 16].a[  2] =        51.345910000000;     BAS[ATNO][ 16].d[  2] =        -0.135024169602;
  BAS[ATNO][ 16].a[  3] =        21.916910000000;     BAS[ATNO][ 16].d[  3] =        -0.401402628117;
  BAS[ATNO][ 16].a[  4] =         9.893725000000;     BAS[ATNO][ 16].d[  4] =        -0.760785637155;
  BAS[ATNO][ 16].a[  5] =         4.492527000000;     BAS[ATNO][ 16].d[  5] =        -0.927262506380;
  BAS[ATNO][ 16].a[  6] =         2.002293000000;     BAS[ATNO][ 16].d[  6] =        -0.653190874608;
  BAS[ATNO][ 16].a[  7] =         0.808409000000;     BAS[ATNO][ 16].d[  7] =         0.056022435287;
  BAS[ATNO][ 16].a[  8] =         0.300600000000;     BAS[ATNO][ 16].d[  8] =        -0.007546223283;
  BAS[ATNO][ 16].a[  9] =         2.793800000000;     BAS[ATNO][ 16].d[  9] =         1.787744334863;
  BAS[ATNO][ 16].a[ 10] =         7.471600000000;     BAS[ATNO][ 16].d[ 10] =         1.493156588631;

  // Basis function  18 L = d
  InitBFNGauss(BAS[ATNO][ 17]);
  BAS[ATNO][ 17].l  = 2;
  BAS[ATNO][ 17].ng = 11;
  BAS[ATNO][ 17].a[  0] =       446.161300000000;     BAS[ATNO][ 17].d[  0] =        -0.003169496208;
  BAS[ATNO][ 17].a[  1] =       133.964800000000;     BAS[ATNO][ 17].d[  1] =        -0.027469042368;
  BAS[ATNO][ 17].a[  2] =        51.345910000000;     BAS[ATNO][ 17].d[  2] =        -0.127267098576;
  BAS[ATNO][ 17].a[  3] =        21.916910000000;     BAS[ATNO][ 17].d[  3] =        -0.378342247850;
  BAS[ATNO][ 17].a[  4] =         9.893725000000;     BAS[ATNO][ 17].d[  4] =        -0.717078882725;
  BAS[ATNO][ 17].a[  5] =         4.492527000000;     BAS[ATNO][ 17].d[  5] =        -0.873991739059;
  BAS[ATNO][ 17].a[  6] =         2.002293000000;     BAS[ATNO][ 17].d[  6] =        -0.615665385485;
  BAS[ATNO][ 17].a[  7] =         0.808409000000;     BAS[ATNO][ 17].d[  7] =        -0.685401076965;
  BAS[ATNO][ 17].a[  8] =         0.300600000000;     BAS[ATNO][ 17].d[  8] =         0.146723590749;
  BAS[ATNO][ 17].a[  9] =         2.793800000000;     BAS[ATNO][ 17].d[  9] =         0.530884180885;
  BAS[ATNO][ 17].a[ 10] =         7.471600000000;     BAS[ATNO][ 17].d[ 10] =         2.028484015389;

  // Basis function  19 L = d
  InitBFNGauss(BAS[ATNO][ 18]);
  BAS[ATNO][ 18].l  = 2;
  BAS[ATNO][ 18].ng = 11;
  BAS[ATNO][ 18].a[  0] =       446.161300000000;     BAS[ATNO][ 18].d[  0] =        -0.003148187480;
  BAS[ATNO][ 18].a[  1] =       133.964800000000;     BAS[ATNO][ 18].d[  1] =        -0.027284366213;
  BAS[ATNO][ 18].a[  2] =        51.345910000000;     BAS[ATNO][ 18].d[  2] =        -0.126411473610;
  BAS[ATNO][ 18].a[  3] =        21.916910000000;     BAS[ATNO][ 18].d[  3] =        -0.375798628355;
  BAS[ATNO][ 18].a[  4] =         9.893725000000;     BAS[ATNO][ 18].d[  4] =        -0.712257914842;
  BAS[ATNO][ 18].a[  5] =         4.492527000000;     BAS[ATNO][ 18].d[  5] =        -0.868115835855;
  BAS[ATNO][ 18].a[  6] =         2.002293000000;     BAS[ATNO][ 18].d[  6] =        -0.611526227128;
  BAS[ATNO][ 18].a[  7] =         0.808409000000;     BAS[ATNO][ 18].d[  7] =         1.048237277629;
  BAS[ATNO][ 18].a[  8] =         0.300600000000;     BAS[ATNO][ 18].d[  8] =         0.124595241240;
  BAS[ATNO][ 18].a[  9] =         2.793800000000;     BAS[ATNO][ 18].d[  9] =        -0.424949027389;
  BAS[ATNO][ 18].a[ 10] =         7.471600000000;     BAS[ATNO][ 18].d[ 10] =         2.294635061197;

  // Basis function  20 L = d
  InitBFNGauss(BAS[ATNO][ 19]);
  BAS[ATNO][ 19].l  = 2;
  BAS[ATNO][ 19].ng = 11;
  BAS[ATNO][ 19].a[  0] =       446.161300000000;     BAS[ATNO][ 19].d[  0] =         0.001335036788;
  BAS[ATNO][ 19].a[  1] =       133.964800000000;     BAS[ATNO][ 19].d[  1] =         0.011570350513;
  BAS[ATNO][ 19].a[  2] =        51.345910000000;     BAS[ATNO][ 19].d[  2] =         0.053606708217;
  BAS[ATNO][ 19].a[  3] =        21.916910000000;     BAS[ATNO][ 19].d[  3] =         0.159363124592;
  BAS[ATNO][ 19].a[  4] =         9.893725000000;     BAS[ATNO][ 19].d[  4] =         0.302043802878;
  BAS[ATNO][ 19].a[  5] =         4.492527000000;     BAS[ATNO][ 19].d[  5] =         0.368137725024;
  BAS[ATNO][ 19].a[  6] =         2.002293000000;     BAS[ATNO][ 19].d[  6] =         0.259326998482;
  BAS[ATNO][ 19].a[  7] =         0.808409000000;     BAS[ATNO][ 19].d[  7] =        -1.286220129318;
  BAS[ATNO][ 19].a[  8] =         0.300600000000;     BAS[ATNO][ 19].d[  8] =         1.416457102205;
  BAS[ATNO][ 19].a[  9] =         2.793800000000;     BAS[ATNO][ 19].d[  9] =         0.405471753308;
  BAS[ATNO][ 19].a[ 10] =         7.471600000000;     BAS[ATNO][ 19].d[ 10] =        -1.026794182107;

  // Basis function  21 L = f
  InitBFNGauss(BAS[ATNO][ 20]);
  BAS[ATNO][ 20].l  = 3;
  BAS[ATNO][ 20].ng = 3;
  BAS[ATNO][ 20].a[  0] =         0.662200000000;     BAS[ATNO][ 20].d[  0] =        -0.001043125416;
  BAS[ATNO][ 20].a[  1] =         3.951800000000;     BAS[ATNO][ 20].d[  1] =         0.552006906590;
  BAS[ATNO][ 20].a[  2] =        11.866400000000;     BAS[ATNO][ 20].d[  2] =         0.593884161953;

  // Basis function  22 L = f
  InitBFNGauss(BAS[ATNO][ 21]);
  BAS[ATNO][ 21].l  = 3;
  BAS[ATNO][ 21].ng = 3;
  BAS[ATNO][ 21].a[  0] =         0.662200000000;     BAS[ATNO][ 21].d[  0] =        -0.411364148607;
  BAS[ATNO][ 21].a[  1] =         3.951800000000;     BAS[ATNO][ 21].d[  1] =        -0.841989505014;
  BAS[ATNO][ 21].a[  2] =        11.866400000000;     BAS[ATNO][ 21].d[  2] =         0.881782079017;

  // Basis function  23 L = f
  InitBFNGauss(BAS[ATNO][ 22]);
  BAS[ATNO][ 22].l  = 3;
  BAS[ATNO][ 22].ng = 3;
  BAS[ATNO][ 22].a[  0] =         0.662200000000;     BAS[ATNO][ 22].d[  0] =         0.939651800647;
  BAS[ATNO][ 22].a[  1] =         3.951800000000;     BAS[ATNO][ 22].d[  1] =        -0.658375178787;
  BAS[ATNO][ 22].a[  2] =        11.866400000000;     BAS[ATNO][ 22].d[  2] =         0.508498160197;

  // Basis function  24 L = g
  InitBFNGauss(BAS[ATNO][ 23]);
  BAS[ATNO][ 23].l  = 4;
  BAS[ATNO][ 23].ng = 1;
  BAS[ATNO][ 23].a[  0] =         8.899500000000;     BAS[ATNO][ 23].d[  0] =         1.000000000000;

-------
TIMINGS
-------

Total SCF time: 0 days 0 hours 0 min 5 sec 

Total time                  ....       5.079 sec
Sum of individual times     ....       4.776 sec  ( 94.0%)

Fock matrix formation       ....       3.947 sec  ( 77.7%)
  XC integration            ....       0.035 sec  (  0.9% of F)
    Basis function eval.    ....       0.010 sec  ( 28.6% of XC)
    Density eval.           ....       0.002 sec  (  6.4% of XC)
    XC-Functional eval.     ....       0.002 sec  (  4.8% of XC)
    XC-Potential eval.      ....       0.004 sec  ( 12.1% of XC)
Diagonalization             ....       0.001 sec  (  0.0%)
Density matrix formation    ....       0.001 sec  (  0.0%)
Population analysis         ....       0.001 sec  (  0.0%)
Initial guess               ....       0.075 sec  (  1.5%)
Orbital Transformation      ....       0.000 sec  (  0.0%)
Orbital Orthonormalization  ....       0.000 sec  (  0.0%)
DIIS solution               ....       0.000 sec  (  0.0%)
SOSCF solution              ....       0.037 sec  (  0.7%)
Grid generation             ....       0.713 sec  ( 14.0%)

-------------------------   --------------------
FINAL SINGLE POINT ENERGY     -1281.438047394423
-------------------------   --------------------


                            ***************************************
                            *     ORCA property calculations      *
                            ***************************************

                                    ---------------------
                                    Active property flags
                                    ---------------------
   (+) Dipole Moment


------------------------------------------------------------------------------
                       ORCA ELECTRIC PROPERTIES CALCULATION
------------------------------------------------------------------------------

Dipole Moment Calculation                       ... on
Quadrupole Moment Calculation                   ... off
Polarizability Calculation                      ... off
GBWName                                         ... Kr_cc-pcvtz_274.071978_.gbw
Electron density file                           ... Kr_cc-pcvtz_274.071978_.scfp
The origin for moment calculation is the CENTER OF MASS  = ( 0.000000,  0.000000  0.000000)

-------------
DIPOLE MOMENT
-------------
                                X             Y             Z
Electronic contribution:      0.00000       0.00000      -0.00000
Nuclear contribution   :      0.00000       0.00000       0.00000
                        -----------------------------------------
Total Dipole Moment    :      0.00000       0.00000      -0.00000
                        -----------------------------------------
Magnitude (a.u.)       :      0.00000
Magnitude (Debye)      :      0.00000



--------------------
Rotational spectrum 
--------------------
 
Rotational constants in cm-1:     0.000000     0.000000     0.000000 
Rotational constants in MHz :     0.000000     0.000000     0.000000 

 Dipole components along the rotational axes: 
x,y,z [a.u.] :     0.000000     0.000000    -0.000000 
x,y,z [Debye]:     0.000000     0.000000    -0.000000 

 

Timings for individual modules:

Sum of individual times         ...        7.095 sec (=   0.118 min)
GTO integral calculation        ...        1.263 sec (=   0.021 min)  17.8 %
Relativistic integrals          ...        0.486 sec (=   0.008 min)   6.9 %
SCF iterations                  ...        5.346 sec (=   0.089 min)  75.3 %
                             ****ORCA TERMINATED NORMALLY****
TOTAL RUN TIME: 0 days 0 hours 0 minutes 7 seconds 464 msec
