
                                 *****************
                                 * O   R   C   A *
                                 *****************

           --- An Ab Initio, DFT and Semiempirical electronic structure package ---

                  #######################################################
                  #                        -***-                        #
                  #          Department of theory and spectroscopy      #
                  #               Directorship: Frank Neese             #
                  #        Max Planck Institute fuer Kohlenforschung    #
                  #                Kaiser Wilhelm Platz 1               #
                  #                 D-45470 Muelheim/Ruhr               #
                  #                      Germany                        #
                  #                                                     #
                  #                  All rights reserved                #
                  #                        -***-                        #
                  #######################################################


                         Program Version 4.2.1 -  RELEASE  -


 With contributions from (in alphabetic order):
   Daniel Aravena         : Magnetic Suceptibility
   Michael Atanasov       : Ab Initio Ligand Field Theory (pilot matlab implementation)
   Alexander A. Auer      : GIAO ZORA, VPT2
   Ute Becker             : Parallelization
   Giovanni Bistoni       : ED, misc. LED, open-shell LED, HFLD
   Martin Brehm           : Molecular dynamics
   Dmytro Bykov           : SCF Hessian
   Vijay G. Chilkuri      : MRCI spin determinant printing, contributions to CSF-ICE
   Dipayan Datta          : RHF DLPNO-CCSD density
   Achintya Kumar Dutta   : EOM-CC, STEOM-CC
   Dmitry Ganyushin       : Spin-Orbit,Spin-Spin,Magnetic field MRCI
   Miquel Garcia          : C-PCM Hessian, Gaussian charge scheme
   Yang Guo               : DLPNO-NEVPT2, CIM, IAO-localization
   Andreas Hansen         : Spin unrestricted coupled pair/coupled cluster methods
   Benjamin Helmich-Paris : CASSCF linear response (MC-RPA)
   Lee Huntington         : MR-EOM, pCC
   Robert Izsak           : Overlap fitted RIJCOSX, COSX-SCS-MP3, EOM
   Christian Kollmar      : KDIIS, OOCD, Brueckner-CCSD(T), CCSD density
   Simone Kossmann        : Meta GGA functionals, TD-DFT gradient, OOMP2, MP2 Hessian
   Martin Krupicka        : AUTO-CI
   Lucas Lang             : DCDCAS
   Dagmar Lenk            : GEPOL surface, SMD
   Dimitrios Liakos       : Extrapolation schemes; Compound Job, initial MDCI parallelization
   Dimitrios Manganas     : Further ROCIS development; embedding schemes
   Dimitrios Pantazis     : SARC Basis sets
   Taras Petrenko         : DFT Hessian,TD-DFT gradient, ASA, ECA, R-Raman, ABS, FL, XAS/XES, NRVS
   Peter Pinski           : DLPNO-MP2, DLPNO-MP2 Gradient
   Christoph Reimann      : Effective Core Potentials
   Marius Retegan         : Local ZFS, SOC
   Christoph Riplinger    : Optimizer, TS searches, QM/MM, DLPNO-CCSD(T), (RO)-DLPNO pert. Triples
   Tobias Risthaus        : Range-separated hybrids, TD-DFT gradient, RPA, STAB
   Michael Roemelt        : Original ROCIS implementation
   Masaaki Saitow         : Open-shell DLPNO-CCSD energy and density
   Barbara Sandhoefer     : DKH picture change effects
   Avijit Sen             : IP-ROCIS
   Kantharuban Sivalingam : CASSCF convergence, NEVPT2, FIC-MRCI
   Bernardo de Souza      : ESD, SOC TD-DFT
   Georgi Stoychev        : AutoAux, RI-MP2 NMR
   Willem Van den Heuvel  : Paramagnetic NMR
   Boris Wezisla          : Elementary symmetry handling
   Frank Wennmohs         : Technical directorship


 We gratefully acknowledge several colleagues who have allowed us to
 interface, adapt or use parts of their codes:
   Stefan Grimme, W. Hujo, H. Kruse,             : VdW corrections, initial TS optimization,
                  C. Bannwarth                     DFT functionals, gCP, sTDA/sTD-DF
   Ed Valeev, F. Pavosevic, A. Kumar             : LibInt (2-el integral package), F12 methods
   Garnet Chan, S. Sharma, J. Yang, R. Olivares  : DMRG
   Ulf Ekstrom                                   : XCFun DFT Library
   Mihaly Kallay                                 : mrcc  (arbitrary order and MRCC methods)
   Andreas Klamt, Michael Diedenhofen            : otool_cosmo (COSMO solvation model)
   Jiri Pittner, Ondrej Demel                    : Mk-CCSD
   Frank Weinhold                                : gennbo (NPA and NBO analysis)
   Christopher J. Cramer and Donald G. Truhlar   : smd solvation model
   Lars Goerigk                                  : TD-DFT with DH, B97 family of functionals
   V. Asgeirsson, H. Jonsson                     : NEB implementation
   FAccTs GmbH                                   : IRC, NEB, NEB-TS, Multilevel, MM, QM/MM, CI optimization
   S Lehtola, MJT Oliveira, MAL Marques          : LibXC Library


 Your calculation uses the libint2 library for the computation of 2-el integrals
 For citations please refer to: http://libint.valeyev.net

 Your ORCA version has been built with support for libXC version: 4.2.3
 For citations please refer to: https://tddft.org/programs/libxc/

 This ORCA versions uses:
   CBLAS   interface :  Fast vector & matrix operations
   LAPACKE interface :  Fast linear algebra routines
   SCALAPACK package :  Parallel linear algebra routines


----- Orbital basis set information -----
Your calculation utilizes the basis: cc-pCVQZ 
             H : cc-pVQZ. Obtained from the ccRepo (grant-hill.group.shef.ac.uk/ccrepo) Feb. 2017
                 T. H. Dunning, Jr., J. Chem. Phys. 90, 1007 (1989)
            He : cc-pVQZ. Obtained from the ccRepo (grant-hill.group.shef.ac.uk/ccrepo) Feb. 2017
                 D. E. Woon, T. H. Dunning, Jr., J. Chem. Phys. 100, 2975 (1994)
  Li-Be, Na-Mg : Obtained from the ccRepo (grant-hill.group.shef.ac.uk/ccrepo) Feb. 2017
                 B. P. Prascher, D. E. Woon, K. A. Peterson, T. H. Dunning, Jr., A. K. Wilson, Theor. Chem. Acc. 128, 69 (2011)
          B-Ne : Obtained from the ccRepo (grant-hill.group.shef.ac.uk/ccrepo) Feb. 2017
                 D. E. Woon, T. H. Dunning, Jr., J. Chem. Phys. 103, 4572 (1995)
                  K. A. Peterson, T. H. Dunning, Jr., J. Chem. Phys. 117, 10548 (2002)
         Al-Ar : Obtained from the EMSL Basis Set Exchange (bse.pnl.gov) Feb. 2017
                 K. A. Peterson, T. H. Dunning, Jr., J. Chem. Phys. 117, 10548 (2002)
            Ca : Obtained from the Peterson Research Group Website (tyr0.chem.wsu.edu/~kipeters) Feb. 2017
                 J. Koput, K. A. Peterson, J. Phys. Chem. A 106, 9595 (2002)
         Ga-Kr : Obtained from the Peterson Research Group Website (tyr0.chem.wsu.edu/~kipeters) Feb. 2017
                 N. J. DeYonker, K. A. Peterson, A. K. Wilson, J. Phys. Chem. A 111, 11383 (2007)

================================================================================
                                        WARNINGS
                       Please study these warnings very carefully!
================================================================================


INFO   : the flag for use of LIBINT has been found!

================================================================================
                                       INPUT FILE
================================================================================
NAME = Kr_cc-pcvqz_34.25899725_.inp
|  1> ! LDA cc-pcvqz nori grid5 finalgrid6 verytightscf
|  2> %Pal NProcs 18 End
|  3> 
|  4> % REL
|  5>   Method ZORA
|  6>   ModelPot 1, 0, 0, 0
|  7>   velit 34.25899725
|  8> END
|  9> 
| 10> *xyz 34 1
| 11> Kr 0.0 0.0 0.0
| 12> **                         ****END OF INPUT****
================================================================================

                       ****************************
                       * Single Point Calculation *
                       ****************************

---------------------------------
CARTESIAN COORDINATES (ANGSTROEM)
---------------------------------
  Kr     0.000000    0.000000    0.000000

----------------------------
CARTESIAN COORDINATES (A.U.)
----------------------------
  NO LB      ZA    FRAG     MASS         X           Y           Z
   0 Kr   36.0000    0    83.800    0.000000    0.000000    0.000000

--------------------------------
INTERNAL COORDINATES (ANGSTROEM)
--------------------------------
 Kr     0   0   0     0.000000000000     0.00000000     0.00000000

---------------------------
INTERNAL COORDINATES (A.U.)
---------------------------
 Kr     0   0   0     0.000000000000     0.00000000     0.00000000

---------------------
BASIS SET INFORMATION
---------------------
There are 1 groups of distinct atoms

 Group   1 Type Kr  : 78s45p15d5f3g1h contracted to 10s9p7d5f3g1h pattern {18181818111111/131313111111/9111111/11111/111/1}

Atom   0Kr   basis set group =>   1


           ************************************************************
           *        Program running with 18 parallel MPI-processes    *
           *              working on a common directory               *
           ************************************************************
------------------------------------------------------------------------------
                           ORCA GTO INTEGRAL CALCULATION
------------------------------------------------------------------------------

                         BASIS SET STATISTICS AND STARTUP INFO

 # of primitive gaussian shells          ...  147
 # of primitive gaussian functions       ...  361
 # of contracted shells                  ...   35
 # of contracted basis functions         ...  145
 Highest angular momentum                ...    5
 Maximum contraction depth               ...   18
 Integral package used                   ... LIBINT
 Integral threshhold            Thresh   ...  1.000e-12
 Primitive cut-off              TCut     ...  1.000e-14


------------------------------ INTEGRAL EVALUATION ----------------------------


 * One electron integrals 
 Pre-screening matrix                    ... done
 Shell pair data                         ... done (   0.000 sec)



           ************************************************************
           *        Program running with 18 parallel MPI-processes    *
           *              working on a common directory               *
           ************************************************************
------------------------------------------------------------------------------
                          ORCA RELATIVISTIC HAMILTONIAN
------------------------------------------------------------------------------

Relativistic Method            ... ZORA(MP)
Treatment of potential         ... Van Wuellen
Nucleus model                  ... Point Nucleus
Speed of light used            ...  34.25899725000000


            *************************************************
            *         ZERO ORDER REGULAR APPROXIMATION      *
            *                     ZORA(MP)                  *
            *            Programmed by FN according to      *
            *                   C. van Wuellen              *
            *       J. Chem. Phys. (1998) vol 109, 392-399  *
            *************************************************

Terms included in model potential: +V(e,N)
Basis function cutoff value   ... 1.000000e-12
Loading the fitted atomic densities  (DKH4)  ... done
Calculating the cutoffs                      ... done
Number of fit functions                      ... 27
Setting up the integration grid ... done


           ************************************************************
           *        Program running with 18 parallel MPI-processes    *
           *              working on a common directory               *
           ************************************************************
-------------------------------------------------------------------------------
                                 ORCA SCF
-------------------------------------------------------------------------------

------------
SCF SETTINGS
------------
Hamiltonian:
 Density Functional     Method          .... DFT(GTOs)
 Exchange Functional    Exchange        .... Slater
   X-Alpha parameter    XAlpha          ....  0.666667
 Correlation Functional Correlation     .... VWN-5
 Gradients option       PostSCFGGA      .... off
   Density functional embedding theory  .... OFF

Relativistic Settings:
 Scalar relativistic method             .... ZORA
 Speed of light used       Velit        ....       34.2589973
Orbital energies will be scaled


General Settings:
 Integral files         IntName         .... Kr_cc-pcvqz_34.25899725_
 Hartree-Fock type      HFTyp           .... RHF
 Total Charge           Charge          ....   34
 Multiplicity           Mult            ....    1
 Number of Electrons    NEL             ....    2
 Basis Dimension        Dim             ....  145
 Nuclear Repulsion      ENuc            ....      0.0000000000 Eh

Convergence Acceleration:
 DIIS                   CNVDIIS         .... on
   Start iteration      DIISMaxIt       ....    12
   Startup error        DIISStart       ....  0.200000
   # of expansion vecs  DIISMaxEq       ....     5
   Bias factor          DIISBfac        ....   1.050
   Max. coefficient     DIISMaxC        ....  10.000
 Newton-Raphson         CNVNR           .... off
 SOSCF                  CNVSOSCF        .... on
   Start iteration      SOSCFMaxIt      ....   150
   Startup grad/error   SOSCFStart      ....  0.003300
 Level Shifting         CNVShift        .... on
   Level shift para.    LevelShift      ....    0.2500
   Turn off err/grad.   ShiftErr        ....    0.0010
 Zerner damping         CNVZerner       .... off
 Static damping         CNVDamp         .... on
   Fraction old density DampFac         ....    0.7000
   Max. Damping (<1)    DampMax         ....    0.9800
   Min. Damping (>=0)   DampMin         ....    0.0000
   Turn off err/grad.   DampErr         ....    0.1000
 Fernandez-Rico         CNVRico         .... off

SCF Procedure:
 Maximum # iterations   MaxIter         ....   125
 SCF integral mode      SCFMode         .... Direct
   Integral package                     .... LIBINT
 Reset frequency        DirectResetFreq ....    20
 Integral Threshold     Thresh          ....  1.000e-12 Eh
 Primitive CutOff       TCut            ....  1.000e-14 Eh

Convergence Tolerance:
 Convergence Check Mode ConvCheckMode   .... Total+1el-Energy
 Convergence forced     ConvForced      .... 0
 Energy Change          TolE            ....  1.000e-09 Eh
 1-El. energy change                    ....  1.000e-06 Eh
 Orbital Gradient       TolG            ....  2.000e-06
 Orbital Rotation angle TolX            ....  2.000e-06
 DIIS Error             TolErr          ....  1.000e-08


Diagonalization of the overlap matrix:
Smallest eigenvalue                        ... 3.416e-06
Time for diagonalization                   ...    0.005 sec
Threshold for overlap eigenvalues          ... 1.000e-08
Number of eigenvalues below threshold      ... 0
Time for construction of square roots      ...    0.003 sec
Total time needed                          ...    0.007 sec

-------------------
DFT GRID GENERATION
-------------------

General Integration Accuracy     IntAcc      ...  5.010
Radial Grid Type                 RadialGrid  ... Gauss-Chebyshev
Angular Grid (max. acc.)         AngularGrid ... Lebedev-434
Angular grid pruning method      GridPruning ... 3 (G Style)
Weight generation scheme         WeightScheme... Becke
Basis function cutoff            BFCut       ...    1.0000e-12
Integration weight cutoff        WCut        ...    1.0000e-14
Grids for H and He will be reduced by one unit

# of grid points (after initial pruning)     ...  16106 (   0.0 sec)
# of grid points (after weights+screening)   ...  16106 (   0.0 sec)
Grid point division into batches done        ...    0.2 sec
Reduced shell lists constructed in    0.2 sec

Total number of grid points                  ...    16106
Total number of batches                      ...      252
Average number of points per batch           ...       63
Average number of grid points per atom       ...    16106
Average number of shells per batch           ...     1.47 ( 4.19%)
Average number of basis functions per batch  ...     3.33 ( 2.30%)
Average number of large shells per batch     ...     0.93 (63.64%)
Average number of large basis fcns per batch ...     2.80 (84.00%)
Maximum spatial batch extension              ...  17.34, 17.34, 17.34 au
Average spatial batch extension              ...   0.86,  0.87,  0.87 au

Time for grid setup =    0.244 sec

------------------------------
INITIAL GUESS: MODEL POTENTIAL
------------------------------
Loading ZORA relativistic densities                ... done
Calculating cut-offs                               ... done
Setting up the integral package                    ... done
Initializing the effective Hamiltonian             ... done
Starting the Coulomb interaction                   ... done (   0.0 sec)
Reading the grid                                   ... done
Mapping shells                                     ... done
Starting the XC term evaluation                    ... done (   0.0 sec)
  promolecular density results
     # of electrons  =     36.000000565
     EX              =    -91.042004939
     EC              =     -3.295965580
     EX+EC           =    -94.337970520
Transforming the Hamiltonian                       ... done (   0.0 sec)
Diagonalizing the Hamiltonian                      ... done (   0.0 sec)
Back transforming the eigenvectors                 ... done (   0.0 sec)
Now organizing SCF variables                       ... done
                      ------------------
                      INITIAL GUESS DONE (   0.3 sec)
                      ------------------
--------------
SCF ITERATIONS
--------------
ITER       Energy         Delta-E        Max-DP      RMS-DP      [F,P]     Damp
               ***  Starting incremental Fock matrix formation  ***
  0  -2124.9642213452   0.000000000000411.89084468  4.59612707  0.3947556 0.7000
  1  -2124.9833090806  -0.019087735320287.60564395  3.20928968  0.2726574 0.7000
                               ***Turning on DIIS***
  2  -2124.9966250674  -0.013315986876200.74826158  2.24008775  0.1882269 0.7000
  3  -2125.0059241129  -0.009299045415139.53381500  1.55703000  0.1299177 0.7000
  4  -2125.0124226602  -0.006498547385324.75621076  3.62390262  0.0904708 0.0000
                      *** Initiating the SOSCF procedure ***
                           *** Shutting down DIIS ***
                      *** Re-Reading the Fockian *** 
                      *** Removing any level shift *** 
ITER      Energy       Delta-E        Grad      Rot      Max-DP    RMS-DP
  5  -2125.02755183  -0.0151291648  0.000863  0.000863  0.306129  0.003412
               *** Restarting incremental Fock matrix formation ***
  6  -2125.02755067   0.0000011511  0.000022  0.000000  0.007905  0.000088
                 **** Energy Check signals convergence ****
              ***Rediagonalizing the Fockian in SOSCF/NRSCF***

               *****************************************************
               *                     SUCCESS                       *
               *           SCF CONVERGED AFTER   7 CYCLES          *
               *****************************************************

Setting up the final grid:

General Integration Accuracy     IntAcc      ...  5.340
Radial Grid Type                 RadialGrid  ... Gauss-Chebyshev
Angular Grid (max. acc.)         AngularGrid ... Lebedev-590
Angular grid pruning method      GridPruning ... 3 (G Style)
Weight generation scheme         WeightScheme... Becke
Basis function cutoff            BFCut       ...    1.0000e-12
Integration weight cutoff        WCut        ...    1.0000e-14
Grids for H and He will be reduced by one unit

# of grid points (after initial pruning)     ...  24180 (   0.0 sec)
# of grid points (after weights+screening)   ...  24180 (   0.0 sec)
Grid point division into batches done        ...    0.4 sec
Reduced shell lists constructed in    0.4 sec

Total number of grid points                  ...    24180
Total number of batches                      ...      378
Average number of points per batch           ...       63
Average number of grid points per atom       ...    24180
Average number of shells per batch           ...     1.23 ( 3.51%)
Average number of basis functions per batch  ...     3.68 ( 2.54%)
Average number of large shells per batch     ...     0.95 (77.78%)
Average number of large basis fcns per batch ...     2.86 (77.78%)
Maximum spatial batch extension              ...  17.58, 17.58, 17.58 au
Average spatial batch extension              ...   0.77,  0.77,  0.77 au

Final grid set up in    0.5 sec
Final integration                            ... done (   0.0 sec)
Change in XC energy                          ...     0.000720348
Integrated number of electrons               ...     2.000002157
Previous integrated no of electrons          ...     2.000017592

----------------
TOTAL SCF ENERGY
----------------

Total Energy       :        -2125.02683033 Eh          -57824.91982 eV

Components:
Nuclear Repulsion  :            0.00000000 Eh               0.00000 eV
Electronic Energy  :        -2125.02683033 Eh          -57824.91982 eV
One Electron Energy:        -2167.82873842 Eh          -58989.61895 eV
Two Electron Energy:           42.80190809 Eh            1164.69913 eV

Virial components:
Potential Energy   :        -4331.14367610 Eh         -117856.41113 eV
Kinetic Energy     :         2206.11684577 Eh           60031.49132 eV
Virial Ratio       :            1.96324310


DFT components:
N(Alpha)           :        1.000001078716 electrons
N(Beta)            :        1.000001078716 electrons
N(Total)           :        2.000002157431 electrons
E(X)               :      -32.958910825499 Eh       
E(C)               :       -0.307207035255 Eh       
E(XC)              :      -33.266117860754 Eh       
DFET-embed. en.    :        0.000000000000 Eh       

---------------
SCF CONVERGENCE
---------------

  Last Energy change         ...   -1.2142e-10  Tolerance :   1.0000e-09
  Last MAX-Density change    ...    6.6524e-05  Tolerance :   1.0000e-08
  Last RMS-Density change    ...    7.4139e-07  Tolerance :   1.0000e-09
  Last Orbital Gradient      ...    1.9075e-07  Tolerance :   2.0000e-06
  Last Orbital Rotation      ...    2.1993e-10  Tolerance :   2.0000e-06

================================================================================
                                        WARNING
Number of found core electrons (2) does not match given number of chemical core electrons (18)
================================================================================
             **** THE GBW FILE WAS UPDATED (Kr_cc-pcvqz_34.25899725_.gbw) ****
             **** DENSITY FILE WAS UPDATED (Kr_cc-pcvqz_34.25899725_.scfp) ****
             **** ENERGY FILE WAS UPDATED (Kr_cc-pcvqz_34.25899725_.en.tmp) ****
             **** THE GBW FILE WAS UPDATED (Kr_cc-pcvqz_34.25899725_.gbw) ****
             **** DENSITY FILE WAS UPDATED (Kr_cc-pcvqz_34.25899725_.scfp) ****
----------------
ORBITAL ENERGIES
----------------

  NO   OCC          E(Eh)            E(eV) 
   0   2.0000   -1029.982942    -28027.2607 
   1   0.0000    -231.174074     -6290.5664 
   2   0.0000    -180.731796     -4917.9622 
   3   0.0000    -180.731796     -4917.9622 
   4   0.0000    -180.731796     -4917.9622 
   5   0.0000     -90.724830     -2468.7481 
   6   0.0000     -76.814273     -2090.2226 
   7   0.0000     -76.814273     -2090.2226 
   8   0.0000     -76.814273     -2090.2226 
   9   0.0000     -70.265655     -1912.0257 
  10   0.0000     -70.265655     -1912.0257 
  11   0.0000     -70.265655     -1912.0257 
  12   0.0000     -70.265655     -1912.0257 
  13   0.0000     -70.265655     -1912.0257 
  14   0.0000     -47.435970     -1290.7984 
  15   0.0000     -41.824485     -1138.1021 
  16   0.0000     -41.824485     -1138.1021 
  17   0.0000     -41.824485     -1138.1021 
  18   0.0000     -39.165053     -1065.7353 
  19   0.0000     -39.165053     -1065.7353 
  20   0.0000     -39.165053     -1065.7353 
  21   0.0000     -39.165053     -1065.7353 
  22   0.0000     -39.165053     -1065.7353 
  23   0.0000     -37.809512     -1028.8491 
  24   0.0000     -37.809512     -1028.8491 
  25   0.0000     -37.809512     -1028.8491 
  26   0.0000     -37.809512     -1028.8491 
  27   0.0000     -37.809512     -1028.8491 
  28   0.0000     -37.809512     -1028.8491 
  29   0.0000     -37.809512     -1028.8491 
  30   0.0000     -28.925933      -787.1147 
  31   0.0000     -26.077142      -709.5951 
  32   0.0000     -26.077142      -709.5951 
  33   0.0000     -26.077142      -709.5951 
  34   0.0000     -24.806388      -675.0161 
  35   0.0000     -24.806388      -675.0161 
  36   0.0000     -24.806388      -675.0161 
  37   0.0000     -24.806388      -675.0161 
  38   0.0000     -24.806388      -675.0161 
  39   0.0000     -23.820917      -648.2001 
  40   0.0000     -23.820917      -648.2001 
  41   0.0000     -23.820917      -648.2001 
  42   0.0000     -23.820917      -648.2001 
  43   0.0000     -23.820917      -648.2001 
  44   0.0000     -23.820917      -648.2001 
  45   0.0000     -23.820917      -648.2001 
  46   0.0000     -23.278014      -633.4270 
  47   0.0000     -23.278014      -633.4270 
  48   0.0000     -23.278014      -633.4270 
  49   0.0000     -23.278014      -633.4270 
  50   0.0000     -23.278014      -633.4270 
  51   0.0000     -23.278014      -633.4270 
  52   0.0000     -23.278014      -633.4270 
  53   0.0000     -23.278014      -633.4270 
  54   0.0000     -23.278014      -633.4270 
  55   0.0000     -19.504575      -530.7465 
  56   0.0000     -17.532421      -477.0814 
  57   0.0000     -17.532421      -477.0814 
  58   0.0000     -17.532421      -477.0814 
  59   0.0000     -17.053841      -464.0586 
  60   0.0000     -17.053841      -464.0586 
  61   0.0000     -17.053841      -464.0586 
  62   0.0000     -17.053841      -464.0586 
  63   0.0000     -17.053841      -464.0586 
  64   0.0000     -16.642000      -452.8518 
  65   0.0000     -16.642000      -452.8518 
  66   0.0000     -16.642000      -452.8518 
  67   0.0000     -16.642000      -452.8518 
  68   0.0000     -16.642000      -452.8518 
  69   0.0000     -16.642000      -452.8518 
  70   0.0000     -16.642000      -452.8518 
  71   0.0000     -14.741811      -401.1451 
  72   0.0000     -14.741811      -401.1451 
  73   0.0000     -14.741811      -401.1451 
  74   0.0000     -14.741811      -401.1451 
  75   0.0000     -14.741811      -401.1451 
  76   0.0000     -14.741811      -401.1451 
  77   0.0000     -14.741811      -401.1451 
  78   0.0000     -14.741811      -401.1451 
  79   0.0000     -14.741811      -401.1451 
  80   0.0000     -13.642914      -371.2426 
  81   0.0000     -12.704204      -345.6990 
  82   0.0000     -12.704204      -345.6990 
  83   0.0000     -12.704204      -345.6990 
  84   0.0000     -12.473028      -339.4083 
  85   0.0000     -12.473028      -339.4083 
  86   0.0000     -12.473028      -339.4083 
  87   0.0000     -12.473028      -339.4083 
  88   0.0000     -12.473028      -339.4083 
  89   0.0000     -11.449715      -311.5626 
  90   0.0000     -11.449715      -311.5626 
  91   0.0000     -11.449715      -311.5626 
  92   0.0000     -11.449715      -311.5626 
  93   0.0000     -11.449715      -311.5626 
  94   0.0000     -11.449715      -311.5626 
  95   0.0000     -11.449715      -311.5626 
  96   0.0000      -9.685772      -263.5633 
  97   0.0000      -9.685772      -263.5633 
  98   0.0000      -9.685772      -263.5633 
  99   0.0000      -9.181563      -249.8430 
 100   0.0000      -8.931479      -243.0379 
 101   0.0000      -8.931479      -243.0379 
 102   0.0000      -8.931479      -243.0379 
 103   0.0000      -8.931479      -243.0379 
 104   0.0000      -8.931479      -243.0379 
 105   0.0000      -6.759041      -183.9228 
 106   0.0000      -6.759041      -183.9228 
 107   0.0000      -6.759041      -183.9228 
 108   0.0000      -3.080855       -83.8343 
 109   0.0000      -1.182445       -32.1760 
 110   0.0000      -1.182445       -32.1760 
 111   0.0000      -1.182445       -32.1760 
 112   0.0000      -1.182445       -32.1760 
 113   0.0000      -1.182445       -32.1760 
 114   0.0000      -1.182445       -32.1760 
 115   0.0000      -1.182445       -32.1760 
 116   0.0000      -1.182445       -32.1760 
 117   0.0000      -1.182445       -32.1760 
 118   0.0000       0.383003        10.4220 
 119   0.0000       0.383003        10.4220 
 120   0.0000       0.383003        10.4220 
 121   0.0000       0.383003        10.4220 
 122   0.0000       0.383003        10.4220 
 123   0.0000       0.383003        10.4220 
 124   0.0000       0.383003        10.4220 
 125   0.0000       0.383003        10.4220 
 126   0.0000       0.383003        10.4220 
 127   0.0000       0.383003        10.4220 
 128   0.0000       0.383003        10.4220 
 129   0.0000       5.075421       138.1092 
 130   0.0000       5.075421       138.1092 
 131   0.0000       5.075421       138.1092 
 132   0.0000       5.075421       138.1092 
 133   0.0000       5.075421       138.1092 
 134   0.0000       5.075421       138.1092 
 135   0.0000       5.075421       138.1092 
 136   0.0000       9.350325       254.4353 
 137   0.0000       9.350325       254.4353 
 138   0.0000       9.350325       254.4353 
 139   0.0000       9.350325       254.4353 
 140   0.0000       9.350325       254.4353 
 141   0.0000      44.989871      1224.2366 
 142   0.0000      44.989871      1224.2366 
 143   0.0000      44.989871      1224.2366 
 144   0.0000     161.959663      4407.1465 

                    ********************************
                    * MULLIKEN POPULATION ANALYSIS *
                    ********************************

-----------------------
MULLIKEN ATOMIC CHARGES
-----------------------
   0 Kr:   34.000000
Sum of atomic charges:   34.0000000

--------------------------------
MULLIKEN REDUCED ORBITAL CHARGES
--------------------------------
  0 Krs       :     2.000000  s :     2.000000
      pz      :     0.000000  p :     0.000000
      px      :     0.000000
      py      :     0.000000
      dz2     :     0.000000  d :     0.000000
      dxz     :     0.000000
      dyz     :     0.000000
      dx2y2   :     0.000000
      dxy     :     0.000000
      f0      :     0.000000  f :     0.000000
      f+1     :     0.000000
      f-1     :     0.000000
      f+2     :     0.000000
      f-2     :     0.000000
      f+3     :     0.000000
      f-3     :     0.000000
      g0      :     0.000000  g :     0.000000
      g+1     :     0.000000
      g-1     :     0.000000
      g+2     :     0.000000
      g-2     :     0.000000
      g+3     :     0.000000
      g-3     :     0.000000
      g+4     :     0.000000
      g-4     :     0.000000
      h0      :     0.000000  h :     0.000000
      h+1     :     0.000000
      h-1     :     0.000000
      h+2     :     0.000000
      h-2     :     0.000000
      h+3     :     0.000000
      h-3     :     0.000000
      h+4     :     0.000000
      h-4     :     0.000000
      h+5     :     0.000000
      h-5     :     0.000000


                     *******************************
                     * LOEWDIN POPULATION ANALYSIS *
                     *******************************

----------------------
LOEWDIN ATOMIC CHARGES
----------------------
   0 Kr:   34.000000

-------------------------------
LOEWDIN REDUCED ORBITAL CHARGES
-------------------------------
  0 Krs       :     2.000000  s :     2.000000
      pz      :     0.000000  p :     0.000000
      px      :     0.000000
      py      :     0.000000
      dz2     :     0.000000  d :     0.000000
      dxz     :     0.000000
      dyz     :     0.000000
      dx2y2   :     0.000000
      dxy     :     0.000000
      f0      :     0.000000  f :     0.000000
      f+1     :     0.000000
      f-1     :     0.000000
      f+2     :     0.000000
      f-2     :     0.000000
      f+3     :     0.000000
      f-3     :     0.000000
      g0      :     0.000000  g :     0.000000
      g+1     :     0.000000
      g-1     :     0.000000
      g+2     :     0.000000
      g-2     :     0.000000
      g+3     :     0.000000
      g-3     :     0.000000
      g+4     :     0.000000
      g-4     :     0.000000
      h0      :     0.000000  h :     0.000000
      h+1     :     0.000000
      h-1     :     0.000000
      h+2     :     0.000000
      h-2     :     0.000000
      h+3     :     0.000000
      h-3     :     0.000000
      h+4     :     0.000000
      h-4     :     0.000000
      h+5     :     0.000000
      h-5     :     0.000000


                      *****************************
                      * MAYER POPULATION ANALYSIS *
                      *****************************

  NA   - Mulliken gross atomic population
  ZA   - Total nuclear charge
  QA   - Mulliken gross atomic charge
  VA   - Mayer's total valence
  BVA  - Mayer's bonded valence
  FA   - Mayer's free valence

  ATOM       NA         ZA         QA         VA         BVA        FA
  0 Kr     2.0000    36.0000    34.0000    -0.0000     0.0000    -0.0000

  Mayer bond orders larger than 0.100000


--------------------------
ATOM BASIS FOR ELEMENT Kr
--------------------------
 NewGTO Kr
 S 78
    1   18226110.000000000000         0.000033402619
    2    2728802.000000000000         0.000263045621
    3     620997.699999999953         0.001386208672
    4     175899.600000000006         0.005852765078
    5      57387.500000000000         0.021295213188
    6      20717.180000000000         0.069138201340
    7       8078.890000000000         0.203543031758
    8       3349.517000000000         0.542128675183
    9       1459.781000000000         1.274691941987
   10        662.893900000000         2.488132875951
   11        311.392200000000         3.556388284344
   12        149.937500000000         2.915270948944
   13         72.498250000000         0.877854219390
   14         35.569350000000         0.026139636717
   15         17.766630000000         0.014168973277
   16          8.712383000000        -0.006879895599
   17          4.144971000000         0.002819389776
   18          1.969649000000        -0.001498942510
   19   18226110.000000000000        -0.000067951585
   20    2728802.000000000000        -0.000536817525
   21     620997.699999999953        -0.002840376273
   22     175899.600000000006        -0.012000249997
   23      57387.500000000000        -0.043720050101
   24      20717.180000000000        -0.142691534361
   25       8078.890000000000        -0.424378036833
   26       3349.517000000000        -1.160640260728
   27       1459.781000000000        -2.879890120257
   28        662.893900000000        -6.310521045716
   29        311.392200000000       -11.262227826794
   30        149.937500000000       -13.285132936382
   31         72.498250000000        -0.111501756623
   32         35.569350000000        30.782550681223
   33         17.766630000000        36.495104569824
   34          8.712383000000        10.389600361147
   35          4.144971000000         0.390116847431
   36          1.969649000000         0.118330890965
   37   18226110.000000000000         0.000071877330
   38    2728802.000000000000         0.000575018640
   39     620997.699999999953         0.003018847858
   40     175899.600000000006         0.012740256732
   41      57387.500000000000         0.046396816478
   42      20717.180000000000         0.151535380850
   43       8078.890000000000         0.451299785374
   44       3349.517000000000         1.238464364235
   45       1459.781000000000         3.094678440657
   46        662.893900000000         6.885111465821
   47        311.392200000000        12.676249969924
   48        149.937500000000        15.825896598654
   49         72.498250000000         0.113709935968
   50         35.569350000000       -51.770814897408
   51         17.766630000000       -90.741481277405
   52          8.712383000000        -4.811702067646
   53          4.144971000000       127.559223962978
   54          1.969649000000        92.686176346986
   55   18226110.000000000000        -0.000021123842
   56    2728802.000000000000        -0.000211238423
   57     620997.699999999953        -0.001119563644
   58     175899.600000000006        -0.004773988369
   59      57387.500000000000        -0.017384922247
   60      20717.180000000000        -0.056696392844
   61       8078.890000000000        -0.169286472524
   62       3349.517000000000        -0.463393729444
   63       1459.781000000000        -1.163374493112
   64        662.893900000000        -2.582727707718
   65        311.392200000000        -4.808145622230
   66        149.937500000000        -5.990848431085
   67         72.498250000000        -0.159801867313
   68         35.569350000000        21.152676386231
   69         17.766630000000        38.346786965361
   70          8.712383000000         2.363060871209
   71          4.144971000000       -75.535543769723
   72          1.969649000000       -96.584649956953
   73          0.679952000000         1.175412135095
   74          0.324502000000        -0.623089605799
   75          0.137441000000         0.155035119308
   76          4.511300000000       -54.416930487961
   77          8.961300000000        -1.048228744875
   78         17.800900000000        13.617119280836
 S 78
    1   18226110.000000000000         0.000023859031
    2    2728802.000000000000         0.000187889867
    3     620997.699999999953         0.000990149777
    4     175899.600000000006         0.004180549549
    5      57387.500000000000         0.015210877716
    6      20717.180000000000         0.049384465738
    7       8078.890000000000         0.145387986427
    8       3349.517000000000         0.387235051911
    9       1459.781000000000         0.910494911858
   10        662.893900000000         1.777239071622
   11        311.392200000000         2.540279208512
   12        149.937500000000         2.082337918889
   13         72.498250000000         0.627039187886
   14         35.569350000000         0.018671182773
   15         17.766630000000         0.010120702618
   16          8.712383000000        -0.004914214746
   17          4.144971000000         0.002013851317
   18          1.969649000000        -0.001070674006
   19   18226110.000000000000        -0.000060076289
   20    2728802.000000000000        -0.000474602684
   21     620997.699999999953        -0.002511188887
   22     175899.600000000006        -0.010609472666
   23      57387.500000000000        -0.038653084447
   24      20717.180000000000        -0.126154199613
   25       8078.890000000000        -0.375194448708
   26       3349.517000000000        -1.026127049416
   27       1459.781000000000        -2.546123249151
   28        662.893900000000        -5.579158814338
   29        311.392200000000        -9.956984089546
   30        149.937500000000       -11.745443202663
   31         72.498250000000        -0.098579182887
   32         35.569350000000        27.214985532381
   33         17.766630000000        32.265479009715
   34          8.712383000000         9.185490391747
   35          4.144971000000         0.344903983712
   36          1.969649000000         0.104616849948
   37   18226110.000000000000         0.000067226203
   38    2728802.000000000000         0.000537809622
   39     620997.699999999953         0.002823500513
   40     175899.600000000006         0.011915844428
   41      57387.500000000000         0.043394513841
   42      20717.180000000000         0.141729641837
   43       8078.890000000000         0.422096520186
   44       3349.517000000000         1.158324279025
   45       1459.781000000000         2.894424157132
   46        662.893900000000         6.439581149824
   47        311.392200000000        11.855979494595
   48        149.937500000000        14.801814890240
   49         72.498250000000         0.106351852667
   50         35.569350000000       -48.420764918526
   51         17.766630000000       -84.869669175558
   52          8.712383000000        -4.500340493716
   53          4.144971000000       119.304963789747
   54          1.969649000000        86.688524509185
   55   18226110.000000000000        -0.000019826866
   56    2728802.000000000000        -0.000198268660
   57     620997.699999999953        -0.001050823896
   58     175899.600000000006        -0.004480871709
   59      57387.500000000000        -0.016317510694
   60      20717.180000000000        -0.053215308266
   61       8078.890000000000        -0.158892503892
   62       3349.517000000000        -0.434941958808
   63       1459.781000000000        -1.091944816492
   64        662.893900000000        -2.424151594821
   65        311.392200000000        -4.512931751742
   66        149.937500000000        -5.623018150597
   67         72.498250000000        -0.149990241071
   68         35.569350000000        19.853929643141
   69         17.766630000000        35.992344257031
   70          8.712383000000         2.217972015588
   71          4.144971000000       -70.897759894660
   72          1.969649000000       -90.654478413945
   73          0.679952000000         1.263428422996
   74          0.324502000000        -0.677670596231
   75          0.137441000000         0.169399539219
   76          4.511300000000       -49.802578919402
   77          8.961300000000        -1.804038587338
   78         17.800900000000        15.923702805420
 S 78
    1   18226110.000000000000         0.000015682695
    2    2728802.000000000000         0.000123501223
    3     620997.699999999953         0.000650831841
    4     175899.600000000006         0.002747902207
    5      57387.500000000000         0.009998208119
    6      20717.180000000000         0.032460728140
    7       8078.890000000000         0.095564462058
    8       3349.517000000000         0.254532099490
    9       1459.781000000000         0.598474183436
   10        662.893900000000         1.168190715078
   11        311.392200000000         1.669741923006
   12        149.937500000000         1.368734157010
   13         72.498250000000         0.412156906167
   14         35.569350000000         0.012272688972
   15         17.766630000000         0.006652403167
   16          8.712383000000        -0.003230145077
   17          4.144971000000         0.001323717471
   18          1.969649000000        -0.000703760936
   19   18226110.000000000000        -0.000043603003
   20    2728802.000000000000        -0.000344463724
   21     620997.699999999953        -0.001822605525
   22     175899.600000000006        -0.007700290328
   23      57387.500000000000        -0.028054172125
   24      20717.180000000000        -0.091561945982
   25       8078.890000000000        -0.272313834583
   26       3349.517000000000        -0.744756732298
   27       1459.781000000000        -1.847960671289
   28        662.893900000000        -4.049319321524
   29        311.392200000000        -7.226718112825
   30        149.937500000000        -8.524770791285
   31         72.498250000000        -0.071548167609
   32         35.569350000000        19.752469936517
   33         17.766630000000        23.418087192015
   34          8.712383000000         6.666772708707
   35          4.144971000000         0.250329200475
   36          1.969649000000         0.075930269410
   37   18226110.000000000000         0.000050126264
   38    2728802.000000000000         0.000401010111
   39     620997.699999999953         0.002105303082
   40     175899.600000000006         0.008884880270
   41      57387.500000000000         0.032356503325
   42      20717.180000000000         0.105678695795
   43       8078.890000000000         0.314730279247
   44       3349.517000000000         0.863688057973
   45       1459.781000000000         2.158186290741
   46        662.893900000000         4.801582284137
   47        311.392200000000         8.840242832236
   48        149.937500000000        11.036763183268
   49         72.498250000000         0.079299749436
   50         35.569350000000       -36.104256101112
   51         17.766630000000       -63.281864222649
   52          8.712383000000        -3.355615013532
   53          4.144971000000        88.958052894180
   54          1.969649000000        64.638067886235
   55   18226110.000000000000        -0.000014821663
   56    2728802.000000000000        -0.000148216626
   57     620997.699999999953        -0.000785548115
   58     175899.600000000006        -0.003349695737
   59      57387.500000000000        -0.012198228283
   60      20717.180000000000        -0.039781342297
   61       8078.890000000000        -0.118780803714
   62       3349.517000000000        -0.325142811465
   63       1459.781000000000        -0.816288243543
   64        662.893900000000        -1.812185393924
   65        311.392200000000        -3.373662365735
   66        149.937500000000        -4.203512430515
   67         72.498250000000        -0.112125877227
   68         35.569350000000        14.841894124181
   69         17.766630000000        26.906238328919
   70          8.712383000000         1.658054925017
   71          4.144971000000       -52.999938294923
   72          1.969649000000       -67.769161807598
   73          0.679952000000         1.030168950001
   74          0.324502000000        -0.554698351595
   75          0.137441000000         0.138519039540
   76          4.511300000000       -36.530729658046
   77          8.961300000000        -1.055327674468
   78         17.800900000000        13.733228354936
 S 78
    1   18226110.000000000000         0.000010871492
    2    2728802.000000000000         0.000085613001
    3     620997.699999999953         0.000451166924
    4     175899.600000000006         0.001904889264
    5      57387.500000000000         0.006930915976
    6      20717.180000000000         0.022502290067
    7       8078.890000000000         0.066246796314
    8       3349.517000000000         0.176445676428
    9       1459.781000000000         0.414871767972
   10        662.893900000000         0.809808276960
   11        311.392200000000         1.157491505612
   12        149.937500000000         0.948828162216
   13         72.498250000000         0.285713685028
   14         35.569350000000         0.008507622071
   15         17.766630000000         0.004611551074
   16          8.712383000000        -0.002239187647
   17          4.144971000000         0.000917621884
   18          1.969649000000        -0.000487858210
   19   18226110.000000000000        -0.000031658248
   20    2728802.000000000000        -0.000250100161
   21     620997.699999999953        -0.001323314778
   22     175899.600000000006        -0.005590846645
   23      57387.500000000000        -0.020368916938
   24      20717.180000000000        -0.066479155546
   25       8078.890000000000        -0.197715257933
   26       3349.517000000000        -0.540735543786
   27       1459.781000000000        -1.341724049142
   28        662.893900000000        -2.940035034704
   29        311.392200000000        -5.247006410362
   30        149.937500000000        -6.189466129771
   31         72.498250000000        -0.051948019590
   32         35.569350000000        14.341411240802
   33         17.766630000000        17.002856856537
   34          8.712383000000         4.840454351877
   35          4.144971000000         0.181753169155
   36          1.969649000000         0.055129673541
   37   18226110.000000000000         0.000037033455
   38    2728802.000000000000         0.000296267642
   39     620997.699999999953         0.001555405119
   40     175899.600000000006         0.006564179935
   41      57387.500000000000         0.023905095333
   42      20717.180000000000         0.078075781931
   43       8078.890000000000         0.232523806855
   44       3349.517000000000         0.638095691509
   45       1459.781000000000         1.594475413758
   46        662.893900000000         3.547425415515
   47        311.392200000000         6.531201642844
   48        149.937500000000         8.153998391468
   49         72.498250000000         0.058586926131
   50         35.569350000000       -26.673947903486
   51         17.766630000000       -46.752857745723
   52          8.712383000000        -2.479139850007
   53          4.144971000000        65.722513762633
   54          1.969649000000        47.754825651327
   55   18226110.000000000000        -0.000011041846
   56    2728802.000000000000        -0.000110418463
   57     620997.699999999953        -0.000585217855
   58     175899.600000000006        -0.002495457270
   59      57387.500000000000        -0.009087439527
   60      20717.180000000000        -0.029636315541
   61       8078.890000000000        -0.088489356462
   62       3349.517000000000        -0.242224982869
   63       1459.781000000000        -0.608118644596
   64        662.893900000000        -1.350042382980
   65        311.392200000000        -2.513311935343
   66        149.937500000000        -3.131533869328
   67         72.498250000000        -0.083531567461
   68         35.569350000000        11.056918446930
   69         17.766630000000        20.044616975930
   70          8.712383000000         1.235218223028
   71          4.144971000000       -39.483908894385
   72          1.969649000000       -50.486689168775
   73          0.679952000000         0.857689504838
   74          0.324502000000        -0.458006670362
   75          0.137441000000         0.113353350897
   76          4.511300000000       -28.135396112551
   77          8.961300000000        -0.442287695951
   78         17.800900000000        11.139228562422
 S 78
    1   18226110.000000000000         0.000008098811
    2    2728802.000000000000         0.000063778137
    3     620997.699999999953         0.000336100659
    4     175899.600000000006         0.001419063550
    5      57387.500000000000         0.005163245137
    6      20717.180000000000         0.016763273449
    7       8078.890000000000         0.049351117529
    8       3349.517000000000         0.131444715812
    9       1459.781000000000         0.309062271988
   10        662.893900000000         0.603273602288
   11        311.392200000000         0.862283197239
   12        149.937500000000         0.706837654859
   13         72.498250000000         0.212844853397
   14         35.569350000000         0.006337825828
   15         17.766630000000         0.003435414415
   16          8.712383000000        -0.001668101990
   17          4.144971000000         0.000683590271
   18          1.969649000000        -0.000363434146
   19   18226110.000000000000        -0.000023879398
   20    2728802.000000000000        -0.000188647241
   21     620997.699999999953        -0.000998158817
   22     175899.600000000006        -0.004217101605
   23      57387.500000000000        -0.015364004376
   24      20717.180000000000        -0.050144346891
   25       8078.890000000000        -0.149134001446
   26       3349.517000000000        -0.407869661712
   27       1459.781000000000        -1.012044686767
   28        662.893900000000        -2.217629502641
   29        311.392200000000        -3.957747468590
   30        149.937500000000        -4.668632357424
   31         72.498250000000        -0.039183703420
   32         35.569350000000        10.817536628544
   33         17.766630000000        12.825029820789
   34          8.712383000000         3.651090633344
   35          4.144971000000         0.137094009207
   36          1.969649000000         0.041583582873
   37   18226110.000000000000         0.000026979409
   38    2728802.000000000000         0.000215835275
   39     620997.699999999953         0.001133135192
   40     175899.600000000006         0.004782100303
   41      57387.500000000000         0.017415208720
   42      20717.180000000000         0.056879339712
   43       8078.890000000000         0.169396966307
   44       3349.517000000000         0.464861967542
   45       1459.781000000000         1.161598468538
   46        662.893900000000         2.584350874501
   47        311.392200000000         4.758075139058
   48        149.937500000000         5.940306110878
   49         72.498250000000         0.042681425554
   50         35.569350000000       -19.432357982573
   51         17.766630000000       -34.060135069262
   52          8.712383000000        -1.806089343374
   53          4.144971000000        47.879804653257
   54          1.969649000000        34.790083223139
   55   18226110.000000000000        -0.000007547394
   56    2728802.000000000000        -0.000075473939
   57     620997.699999999953        -0.000400011879
   58     175899.600000000006        -0.001705711030
   59      57387.500000000000        -0.006211505211
   60      20717.180000000000        -0.020257205329
   61       8078.890000000000        -0.060484815018
   62       3349.517000000000        -0.165567180814
   63       1459.781000000000        -0.415665173731
   64        662.893900000000        -0.922789667201
   65        311.392200000000        -1.717915165944
   66        149.937500000000        -2.140486205128
   67         72.498250000000        -0.057096035140
   68         35.569350000000         7.557696130541
   69         17.766630000000        13.701025731924
   70          8.712383000000         0.844304317642
   71          4.144971000000       -26.988295780782
   72          1.969649000000       -34.508987038846
   73          0.679952000000         1.092655624884
   74          0.324502000000        -0.513148688591
   75          0.137441000000         0.121093271462
   76          4.511300000000       -24.776878598397
   77          8.961300000000        -0.106642374463
   78         17.800900000000         9.104343565984
 S 78
    1   18226110.000000000000         0.000006266642
    2    2728802.000000000000         0.000049349810
    3     620997.699999999953         0.000260065664
    4     175899.600000000006         0.001098033265
    5      57387.500000000000         0.003995180423
    6      20717.180000000000         0.012970970802
    7       8078.890000000000         0.038186569373
    8       3349.517000000000         0.101708391024
    9       1459.781000000000         0.239144085907
   10        662.893900000000         0.466796911971
   11        311.392200000000         0.667211580598
   12        149.937500000000         0.546931994540
   13         72.498250000000         0.164693631410
   14         35.569350000000         0.004904039417
   15         17.766630000000         0.002658231413
   16          8.712383000000        -0.001290732521
   17          4.144971000000         0.000528943793
   18          1.969649000000        -0.000281215582
   19   18226110.000000000000        -0.000018615543
   20    2728802.000000000000        -0.000147062793
   21     620997.699999999953        -0.000778129713
   22     175899.600000000006        -0.003287504961
   23      57387.500000000000        -0.011977240611
   24      20717.180000000000        -0.039090779544
   25       8078.890000000000        -0.116259653072
   26       3349.517000000000        -0.317960927150
   27       1459.781000000000        -0.788954651766
   28        662.893900000000        -1.728786421073
   29        311.392200000000        -3.085321544282
   30        149.937500000000        -3.639502547600
   31         72.498250000000        -0.030546245132
   32         35.569350000000         8.432973321563
   33         17.766630000000         9.997944822445
   34          8.712383000000         2.846262597748
   35          4.144971000000         0.106873696100
   36          1.969649000000         0.032417107242
   37   18226110.000000000000         0.000019730171
   38    2728802.000000000000         0.000157841367
   39     620997.699999999953         0.000828667177
   40     175899.600000000006         0.003497172789
   41      57387.500000000000         0.012735825306
   42      20717.180000000000         0.041596132767
   43       8078.890000000000         0.123880810441
   44       3349.517000000000         0.339955776883
   45       1459.781000000000         0.849482507432
   46        662.893900000000         1.889948136484
   47        311.392200000000         3.479603072106
   48        149.937500000000         4.344174227723
   49         72.498250000000         0.031213130339
   50         35.569350000000       -14.210976194843
   51         17.766630000000       -24.908339435518
   52          8.712383000000        -1.320801762064
   53          4.144971000000        35.014729800231
   54          1.969649000000        25.442154006426
   55   18226110.000000000000        -0.000004852342
   56    2728802.000000000000        -0.000048523422
   57     620997.699999999953        -0.000257174135
   58     175899.600000000006        -0.001096629330
   59      57387.500000000000        -0.003993477606
   60      20717.180000000000        -0.013023686384
   61       8078.890000000000        -0.038886670150
   62       3349.517000000000        -0.106445830184
   63       1459.781000000000        -0.267237892671
   64        662.893900000000        -0.593276467759
   65        311.392200000000        -1.104475567712
   66        149.937500000000        -1.376153353469
   67         72.498250000000        -0.036707968516
   68         35.569350000000         4.858965617075
   69         17.766630000000         8.808612016174
   70          8.712383000000         0.542816961533
   71          4.144971000000       -17.351213782246
   72          1.969649000000       -22.186388365662
   73          0.679952000000        -2.534671360894
   74          0.324502000000         0.325952608933
   75          0.137441000000        -0.051531573738
   76          4.511300000000       -21.428576938071
   77          8.961300000000        -0.704703607117
   78         17.800900000000         7.846377633442
 S 78
    1   18226110.000000000000         0.000004323899
    2    2728802.000000000000         0.000034050704
    3     620997.699999999953         0.000179441803
    4     175899.600000000006         0.000757628154
    5      57387.500000000000         0.002756620646
    6      20717.180000000000         0.008949795035
    7       8078.890000000000         0.026348218202
    8       3349.517000000000         0.070177419014
    9       1459.781000000000         0.165006196171
   10        662.893900000000         0.322083577925
   11        311.392200000000         0.460366998156
   12        149.937500000000         0.377375704864
   13         72.498250000000         0.113636385987
   14         35.569350000000         0.003383721103
   15         17.766630000000         0.001834143848
   16          8.712383000000        -0.000890588044
   17          4.144971000000         0.000364964088
   18          1.969649000000        -0.000194034961
   19   18226110.000000000000        -0.000013297857
   20    2728802.000000000000        -0.000105053073
   21     620997.699999999953        -0.000555850438
   22     175899.600000000006        -0.002348401610
   23      57387.500000000000        -0.008555841428
   24      20717.180000000000        -0.027924170679
   25       8078.890000000000        -0.083049108596
   26       3349.517000000000        -0.227132722921
   27       1459.781000000000        -0.563583141873
   28        662.893900000000        -1.234944087897
   29        311.392200000000        -2.203973581656
   30        149.937500000000        -2.599848135812
   31         72.498250000000        -0.021820454149
   32         35.569350000000         6.024023800691
   33         17.766630000000         7.141948073570
   34          8.712383000000         2.033203827173
   35          4.144971000000         0.076344328913
   36          1.969649000000         0.023156888814
   37   18226110.000000000000         0.000014170506
   38    2728802.000000000000         0.000113364050
   39     620997.699999999953         0.000595161264
   40     175899.600000000006         0.002511722241
   41      57387.500000000000         0.009147061814
   42      20717.180000000000         0.029874969898
   43       8078.890000000000         0.088973066404
   44       3349.517000000000         0.244161366101
   45       1459.781000000000         0.610111148560
   46        662.893900000000         1.357389255434
   47        311.392200000000         2.499103405049
   48        149.937500000000         3.120051448298
   49         72.498250000000         0.022417740960
   50         35.569350000000       -10.206537430175
   51         17.766630000000       -17.889545045073
   52          8.712383000000        -0.948619745577
   53          4.144971000000        25.148107027525
   54          1.969649000000        18.272938720782
   55   18226110.000000000000        -0.000003451102
   56    2728802.000000000000        -0.000034511023
   57     620997.699999999953        -0.000182908420
   58     175899.600000000006        -0.000779949112
   59      57387.500000000000        -0.002840257165
   60      20717.180000000000        -0.009262758481
   61       8078.890000000000        -0.027657133557
   62       3349.517000000000        -0.075706830401
   63       1459.781000000000        -0.190066006177
   64        662.893900000000        -0.421952469610
   65        311.392200000000        -0.785529544396
   66        149.937500000000        -0.978753309146
   67         72.498250000000        -0.026107588639
   68         35.569350000000         3.455813020223
   69         17.766630000000         6.264896378071
   70          8.712383000000         0.386064457149
   71          4.144971000000       -12.340599878838
   72          1.969649000000       -15.779492144653
   73          0.679952000000        -5.493624116172
   74          0.324502000000         4.503832748813
   75          0.137441000000        -0.650992820783
   76          4.511300000000       -14.098015565438
   77          8.961300000000        -1.839505772270
   78         17.800900000000         6.250044571485
 S 78
    1   18226110.000000000000         0.000002974775
    2    2728802.000000000000         0.000023426352
    3     620997.699999999953         0.000123453154
    4     175899.600000000006         0.000521236323
    5      57387.500000000000         0.001896511899
    6      20717.180000000000         0.006157319036
    7       8078.890000000000         0.018127162116
    8       3349.517000000000         0.048280966919
    9       1459.781000000000         0.113521682768
   10        662.893900000000         0.221588465200
   11        311.392200000000         0.316725295984
   12        149.937500000000         0.259628583932
   13         72.498250000000         0.078180056630
   14         35.569350000000         0.002327947208
   15         17.766630000000         0.001261862287
   16          8.712383000000        -0.000612710648
   17          4.144971000000         0.000251089586
   18          1.969649000000        -0.000133493019
   19   18226110.000000000000        -0.000009665488
   20    2728802.000000000000        -0.000076357351
   21     620997.699999999953        -0.000404017378
   22     175899.600000000006        -0.001706925093
   23      57387.500000000000        -0.006218774661
   24      20717.180000000000        -0.020296557212
   25       8078.890000000000        -0.060363869117
   26       3349.517000000000        -0.165090392786
   27       1459.781000000000        -0.409637858707
   28        662.893900000000        -0.897613527096
   29        311.392200000000        -1.601948233645
   30        149.937500000000        -1.889687863581
   31         72.498250000000        -0.015860098447
   32         35.569350000000         4.378534464873
   33         17.766630000000         5.191092668471
   34          8.712383000000         1.477825009650
   35          4.144971000000         0.055490530317
   36          1.969649000000         0.016831479942
   37   18226110.000000000000         0.000011181713
   38    2728802.000000000000         0.000089453700
   39     620997.699999999953         0.000469631928
   40     175899.600000000006         0.001981958551
   41      57387.500000000000         0.007217795458
   42      20717.180000000000         0.023573845507
   43       8078.890000000000         0.070207177742
   44       3349.517000000000         0.192663702854
   45       1459.781000000000         0.481428634314
   46        662.893900000000         1.071093450791
   47        311.392200000000         1.972001236403
   48        149.937500000000         2.461981085398
   49         72.498250000000         0.017689469272
   50         35.569350000000        -8.053810174895
   51         17.766630000000       -14.116344636360
   52          8.712383000000        -0.748540179400
   53          4.144971000000        19.843956056913
   54          1.969649000000        14.418874255983
   55   18226110.000000000000        -0.000003110604
   56    2728802.000000000000        -0.000031106044
   57     620997.699999999953        -0.000164862035
   58     175899.600000000006        -0.000702996602
   59      57387.500000000000        -0.002560027448
   60      20717.180000000000        -0.008348862297
   61       8078.890000000000        -0.024928383921
   62       3349.517000000000        -0.068237329434
   63       1459.781000000000        -0.171313428512
   64        662.893900000000        -0.380321161535
   65        311.392200000000        -0.708026449096
   66        149.937500000000        -0.882186080663
   67         72.498250000000        -0.023531722531
   68         35.569350000000         3.114850407479
   69         17.766630000000         5.646779765530
   70          8.712383000000         0.347973986043
   71          4.144971000000       -11.123033085469
   72          1.969649000000       -14.222632199416
   73          0.679952000000        -3.490973060145
   74          0.324502000000         5.347140402999
   75          0.137441000000        -3.112227584608
   76          4.511300000000        -7.891341894540
   77          8.961300000000        -2.508623590783
   78         17.800900000000         4.910940565229
 S 78
    1   18226110.000000000000         0.000014017201
    2    2728802.000000000000         0.000110385459
    3     620997.699999999953         0.000581713848
    4     175899.600000000006         0.002456076467
    5      57387.500000000000         0.008936403781
    6      20717.180000000000         0.029013416225
    7       8078.890000000000         0.085415567453
    8       3349.517000000000         0.227500927069
    9       1459.781000000000         0.534916546208
   10        662.893900000000         1.044129487816
   11        311.392200000000         1.492416226519
   12        149.937500000000         1.223375323796
   13         72.498250000000         0.368386063834
   14         35.569350000000         0.010969335987
   15         17.766630000000         0.005945921519
   16          8.712383000000        -0.002887105403
   17          4.144971000000         0.001183139386
   18          1.969649000000        -0.000629021902
   19   18226110.000000000000        -0.000048522662
   20    2728802.000000000000        -0.000383329032
   21     620997.699999999953        -0.002028247283
   22     175899.600000000006        -0.008569102159
   23      57387.500000000000        -0.031219480913
   24      20717.180000000000        -0.101892738527
   25       8078.890000000000        -0.303038582753
   26       3349.517000000000        -0.828786480850
   27       1459.781000000000        -2.056463211525
   28        662.893900000000        -4.506197748584
   29        311.392200000000        -8.042097524038
   30        149.937500000000        -9.486607475655
   31         72.498250000000        -0.079620836539
   32         35.569350000000        21.981110524870
   33         17.766630000000        26.060313697634
   34          8.712383000000         7.418974347272
   35          4.144971000000         0.278573456430
   36          1.969649000000         0.084497364099
   37   18226110.000000000000         0.000062821392
   38    2728802.000000000000         0.000502571138
   39     620997.699999999953         0.002638498473
   40     175899.600000000006         0.011135091771
   41      57387.500000000000         0.040551208679
   42      20717.180000000000         0.132443200152
   43       8078.890000000000         0.394439816414
   44       3349.517000000000         1.082428293333
   45       1459.781000000000         2.704775042119
   46        662.893900000000         6.017645455599
   47        311.392200000000        11.079149321578
   48        149.937500000000        13.831967023399
   49         72.498250000000         0.099383442495
   50         35.569350000000       -45.248128595529
   51         17.766630000000       -79.308819494638
   52          8.712383000000        -4.205468164866
   53          4.144971000000       111.487836937868
   54          1.969649000000        81.008499377249
   55   18226110.000000000000        -0.000020355163
   56    2728802.000000000000        -0.000203551632
   57     620997.699999999953        -0.001078823649
   58     175899.600000000006        -0.004600266880
   59      57387.500000000000        -0.016752299300
   60      20717.180000000000        -0.054633257985
   61       8078.890000000000        -0.163126277754
   62       3349.517000000000        -0.446531214761
   63       1459.781000000000        -1.121040257180
   64        662.893900000000        -2.488744381820
   65        311.392200000000        -4.633181178387
   66        149.937500000000        -5.772846409880
   67         72.498250000000        -0.153986809485
   68         35.569350000000        20.382947981459
   69         17.766630000000        36.951379092616
   70          8.712383000000         2.277071039872
   71          4.144971000000       -72.786867784338
   72          1.969649000000       -93.070014400707
   73          0.679952000000         6.938313501229
   74          0.324502000000        -4.658747530480
   75          0.137441000000         1.406991647479
   76          4.511300000000       -24.571350706148
   77          8.961300000000       -18.346125039343
   78         17.800900000000        25.902856713592
 S 78
    1   18226110.000000000000        -0.000049183222
    2    2728802.000000000000        -0.000387317875
    3     620997.699999999953        -0.002041103720
    4     175899.600000000006        -0.008617822708
    5      57387.500000000000        -0.031355841103
    6      20717.180000000000        -0.101801584994
    7       8078.890000000000        -0.299704112138
    8       3349.517000000000        -0.798249843569
    9       1459.781000000000        -1.876902458530
   10        662.893900000000        -3.663616720400
   11        311.392200000000        -5.236554570172
   12        149.937500000000        -4.292550247730
   13         72.498250000000        -1.292584261603
   14         35.569350000000        -0.038488945292
   15         17.766630000000        -0.020862908050
   16          8.712383000000         0.010130206789
   17          4.144971000000        -0.004151371345
   18          1.969649000000         0.002207097094
   19   18226110.000000000000         0.000088675077
   20    2728802.000000000000         0.000700533111
   21     620997.699999999953         0.003706618235
   22     175899.600000000006         0.015660018668
   23      57387.500000000000         0.057053544798
   24      20717.180000000000         0.186208795028
   25       8078.890000000000         0.553802460873
   26       3349.517000000000         1.514605791987
   27       1459.781000000000         3.758182792739
   28        662.893900000000         8.235068220281
   29        311.392200000000        14.696918652852
   30        149.937500000000        17.336757971972
   31         72.498250000000         0.145506934502
   32         35.569350000000       -40.170439654302
   33         17.766630000000       -47.625176060990
   34          8.712383000000       -13.558162176416
   35          4.144971000000        -0.509092486849
   36          1.969649000000        -0.154418779781
   37   18226110.000000000000        -0.000079986658
   38    2728802.000000000000        -0.000639893262
   39     620997.699999999953        -0.003359439626
   40     175899.600000000006        -0.014177635088
   41      57387.500000000000        -0.051631387585
   42      20717.180000000000        -0.168631871226
   43       8078.890000000000        -0.502216227420
   44       3349.517000000000        -1.378190109895
   45       1459.781000000000        -3.443825549920
   46        662.893900000000        -7.661901950307
   47        311.392200000000       -14.106406969485
   48        149.937500000000       -17.611402315928
   49         72.498250000000        -0.126538892579
   50         35.569350000000        57.611690035890
   51         17.766630000000       100.979096100980
   52          8.712383000000         5.354566827191
   53          4.144971000000      -141.950681802804
   54          1.969649000000      -103.143195116710
   55   18226110.000000000000         0.000023031877
   56    2728802.000000000000         0.000230318766
   57     620997.699999999953         0.001220689462
   58     175899.600000000006         0.005205204122
   59      57387.500000000000         0.018955234481
   60      20717.180000000000         0.061817556923
   61       8078.890000000000         0.184577459456
   62       3349.517000000000         0.505250278025
   63       1459.781000000000         1.268457574507
   64        662.893900000000         2.816015430234
   65        311.392200000000         5.242446666969
   66        149.937500000000         6.531978408609
   67         72.498250000000         0.174236146841
   68         35.569350000000       -23.063315159541
   69         17.766630000000       -41.810502699016
   70          8.712383000000        -2.576506944973
   71          4.144971000000        82.358374888317
   72          1.969649000000       105.308764756654
   73          0.679952000000        -0.199555515476
   74          0.324502000000         0.044891886900
   75          0.137441000000        -0.003346683535
   76          4.511300000000        67.926394487777
   77          8.961300000000        -6.142619732874
   78         17.800900000000         0.646176284413
 P 45
    1      28600.830000000002         0.000161617044
    2       6770.991000000000         0.001436655309
    3       2199.049000000000         0.008263572948
    4        841.179600000000         0.036103377642
    5        356.766300000000         0.125809919578
    6        162.636200000000         0.346261177208
    7         77.966040000000         0.710876707883
    8         38.661490000000         0.982540266101
    9         19.576790000000         0.732050944845
   10          9.791761000000         0.210265911106
   11          4.835383000000         0.013314573055
   12          2.368125000000         0.003276952523
   13          1.089996000000        -0.000653947972
   14      28600.830000000002        -0.000021395971
   15       6770.991000000000        -0.000190650279
   16       2199.049000000000        -0.001098326516
   17        841.179600000000        -0.004849405544
   18        356.766300000000        -0.017181660586
   19        162.636200000000        -0.049096621653
   20         77.966040000000        -0.105668525935
   21         38.661490000000        -0.156112919815
   22         19.576790000000        -0.083697733821
   23          9.791761000000         0.188144515017
   24          4.835383000000         0.426155645719
   25          2.368125000000         0.324136611437
   26          1.089996000000         0.065239273009
   27      28600.830000000002        -0.000003286971
   28       6770.991000000000        -0.000029239322
   29       2199.049000000000        -0.000168371397
   30        841.179600000000        -0.000745210232
   31        356.766300000000        -0.002643362246
   32        162.636200000000        -0.007600997189
   33         77.966040000000        -0.016443488133
   34         38.661490000000        -0.024623384646
   35         19.576790000000        -0.011997443202
   36          9.791761000000         0.036939320595
   37          4.835383000000         0.086370503663
   38          2.368125000000         0.077058564615
   39          1.089996000000        -0.064001686590
   40          0.504588000000        -0.019877691437
   41          0.218455000000         0.011328240747
   42          0.089959000000        -0.003497236555
   43          3.084400000000        -0.768540699693
   44         11.359000000000        -0.961507907491
   45         41.831600000000        -0.912849446047
 P 45
    1      28600.830000000002         0.000132381969
    2       6770.991000000000         0.001176777236
    3       2199.049000000000         0.006768766646
    4        841.179600000000         0.029572600122
    5        356.766300000000         0.103052032415
    6        162.636200000000         0.283625632839
    7         77.966040000000         0.582285481062
    8         38.661490000000         0.804807535773
    9         19.576790000000         0.599629488284
   10          9.791761000000         0.172230691823
   11          4.835383000000         0.010906086092
   12          2.368125000000         0.002684181174
   13          1.089996000000        -0.000535654644
   14      28600.830000000002        -0.000034806744
   15       6770.991000000000        -0.000310147898
   16       2199.049000000000        -0.001786746193
   17        841.179600000000        -0.007888962680
   18        356.766300000000        -0.027950947371
   19        162.636200000000        -0.079869875268
   20         77.966040000000        -0.171900462845
   21         38.661490000000        -0.253962880004
   22         19.576790000000        -0.136158605938
   23          9.791761000000         0.306071547103
   24          4.835383000000         0.693265587787
   25          2.368125000000         0.527302080141
   26          1.089996000000         0.106130573192
   27      28600.830000000002        -0.000003460928
   28       6770.991000000000        -0.000030786759
   29       2199.049000000000        -0.000177282143
   30        841.179600000000        -0.000784649113
   31        356.766300000000        -0.002783257330
   32        162.636200000000        -0.008003265983
   33         77.966040000000        -0.017313729494
   34         38.661490000000        -0.025926531984
   35         19.576790000000        -0.012632385815
   36          9.791761000000         0.038894266188
   37          4.835383000000         0.090941503692
   38          2.368125000000         0.081136747399
   39          1.089996000000        -0.067388858122
   40          0.504588000000        -0.053082151219
   41          0.218455000000         0.027008478529
   42          0.089959000000        -0.008038167727
   43          3.084400000000        -1.253271152992
   44         11.359000000000        -2.008498651579
   45         41.831600000000        -0.840334100362
 P 45
    1      28600.830000000002         0.000166731981
    2       6770.991000000000         0.001482123299
    3       2199.049000000000         0.008525102665
[...]
  BAS[ATNO][ 18].a[ 43] =        11.359000000000;     BAS[ATNO][ 18].d[ 43] =         5.363069373975;
  BAS[ATNO][ 18].a[ 44] =        41.831600000000;     BAS[ATNO][ 18].d[ 44] =        -4.551642563435;

  // Basis function  20 L = d
  InitBFNGauss(BAS[ATNO][ 19]);
  BAS[ATNO][ 19].l  = 2;
  BAS[ATNO][ 19].ng = 15;
  BAS[ATNO][ 19].a[  0] =      1437.779000000000;     BAS[ATNO][ 19].d[  0] =        -0.000463221577;
  BAS[ATNO][ 19].a[  1] =       434.268500000000;     BAS[ATNO][ 19].d[  1] =        -0.004526862125;
  BAS[ATNO][ 19].a[  2] =       168.927000000000;     BAS[ATNO][ 19].d[  2] =        -0.026783655529;
  BAS[ATNO][ 19].a[  3] =        74.777540000000;     BAS[ATNO][ 19].d[  3] =        -0.109692792540;
  BAS[ATNO][ 19].a[  4] =        35.516020000000;     BAS[ATNO][ 19].d[  4] =        -0.329537418497;
  BAS[ATNO][ 19].a[  5] =        17.671050000000;     BAS[ATNO][ 19].d[  5] =        -0.740266960453;
  BAS[ATNO][ 19].a[  6] =         9.004611000000;     BAS[ATNO][ 19].d[  6] =        -1.187160812940;
  BAS[ATNO][ 19].a[  7] =         4.594773000000;     BAS[ATNO][ 19].d[  7] =        -1.377416115495;
  BAS[ATNO][ 19].a[  8] =         2.326486000000;     BAS[ATNO][ 19].d[  8] =        -1.082383687640;
  BAS[ATNO][ 19].a[  9] =         1.133247000000;     BAS[ATNO][ 19].d[  9] =         0.164911660637;
  BAS[ATNO][ 19].a[ 10] =         0.481307000000;     BAS[ATNO][ 19].d[ 10] =        -0.048411910906;
  BAS[ATNO][ 19].a[ 11] =         0.205300000000;     BAS[ATNO][ 19].d[ 11] =         0.013810004026;
  BAS[ATNO][ 19].a[ 12] =         2.924200000000;     BAS[ATNO][ 19].d[ 12] =         1.558765604752;
  BAS[ATNO][ 19].a[ 13] =         6.230000000000;     BAS[ATNO][ 19].d[ 13] =         1.267769999780;
  BAS[ATNO][ 19].a[ 14] =        13.272800000000;     BAS[ATNO][ 19].d[ 14] =         0.726645581278;

  // Basis function  21 L = d
  InitBFNGauss(BAS[ATNO][ 20]);
  BAS[ATNO][ 20].l  = 2;
  BAS[ATNO][ 20].ng = 15;
  BAS[ATNO][ 20].a[  0] =      1437.779000000000;     BAS[ATNO][ 20].d[  0] =        -0.000385631657;
  BAS[ATNO][ 20].a[  1] =       434.268500000000;     BAS[ATNO][ 20].d[  1] =        -0.003768609730;
  BAS[ATNO][ 20].a[  2] =       168.927000000000;     BAS[ATNO][ 20].d[  2] =        -0.022297375538;
  BAS[ATNO][ 20].a[  3] =        74.777540000000;     BAS[ATNO][ 20].d[  3] =        -0.091319177341;
  BAS[ATNO][ 20].a[  4] =        35.516020000000;     BAS[ATNO][ 20].d[  4] =        -0.274339683248;
  BAS[ATNO][ 20].a[  5] =        17.671050000000;     BAS[ATNO][ 20].d[  5] =        -0.616271755651;
  BAS[ATNO][ 20].a[  6] =         9.004611000000;     BAS[ATNO][ 20].d[  6] =        -0.988310592685;
  BAS[ATNO][ 20].a[  7] =         4.594773000000;     BAS[ATNO][ 20].d[  7] =        -1.146698006404;
  BAS[ATNO][ 20].a[  8] =         2.326486000000;     BAS[ATNO][ 20].d[  8] =        -0.901083705075;
  BAS[ATNO][ 20].a[  9] =         1.133247000000;     BAS[ATNO][ 20].d[  9] =         0.117428153835;
  BAS[ATNO][ 20].a[ 10] =         0.481307000000;     BAS[ATNO][ 20].d[ 10] =        -0.029827189966;
  BAS[ATNO][ 20].a[ 11] =         0.205300000000;     BAS[ATNO][ 20].d[ 11] =         0.008021469812;
  BAS[ATNO][ 20].a[ 12] =         2.924200000000;     BAS[ATNO][ 20].d[ 12] =         1.694980567743;
  BAS[ATNO][ 20].a[ 13] =         6.230000000000;     BAS[ATNO][ 20].d[ 13] =         1.889308342372;
  BAS[ATNO][ 20].a[ 14] =        13.272800000000;     BAS[ATNO][ 20].d[ 14] =         0.792259982131;

  // Basis function  22 L = d
  InitBFNGauss(BAS[ATNO][ 21]);
  BAS[ATNO][ 21].l  = 2;
  BAS[ATNO][ 21].ng = 15;
  BAS[ATNO][ 21].a[  0] =      1437.779000000000;     BAS[ATNO][ 21].d[  0] =        -0.000305393161;
  BAS[ATNO][ 21].a[  1] =       434.268500000000;     BAS[ATNO][ 21].d[  1] =        -0.002984473959;
  BAS[ATNO][ 21].a[  2] =       168.927000000000;     BAS[ATNO][ 21].d[  2] =        -0.017657953840;
  BAS[ATNO][ 21].a[  3] =        74.777540000000;     BAS[ATNO][ 21].d[  3] =        -0.072318368386;
  BAS[ATNO][ 21].a[  4] =        35.516020000000;     BAS[ATNO][ 21].d[  4] =        -0.217257742064;
  BAS[ATNO][ 21].a[  5] =        17.671050000000;     BAS[ATNO][ 21].d[  5] =        -0.488043904349;
  BAS[ATNO][ 21].a[  6] =         9.004611000000;     BAS[ATNO][ 21].d[  6] =        -0.782672507608;
  BAS[ATNO][ 21].a[  7] =         4.594773000000;     BAS[ATNO][ 21].d[  7] =        -0.908104204067;
  BAS[ATNO][ 21].a[  8] =         2.326486000000;     BAS[ATNO][ 21].d[  8] =        -0.713594944986;
  BAS[ATNO][ 21].a[  9] =         1.133247000000;     BAS[ATNO][ 21].d[  9] =        -0.549936268444;
  BAS[ATNO][ 21].a[ 10] =         0.481307000000;     BAS[ATNO][ 21].d[ 10] =         0.118656385047;
  BAS[ATNO][ 21].a[ 11] =         0.205300000000;     BAS[ATNO][ 21].d[ 11] =        -0.033998500921;
  BAS[ATNO][ 21].a[ 12] =         2.924200000000;     BAS[ATNO][ 21].d[ 12] =         0.194090653175;
  BAS[ATNO][ 21].a[ 13] =         6.230000000000;     BAS[ATNO][ 21].d[ 13] =         2.066900549715;
  BAS[ATNO][ 21].a[ 14] =        13.272800000000;     BAS[ATNO][ 21].d[ 14] =         0.706900129356;

  // Basis function  23 L = d
  InitBFNGauss(BAS[ATNO][ 22]);
  BAS[ATNO][ 22].l  = 2;
  BAS[ATNO][ 22].ng = 15;
  BAS[ATNO][ 22].a[  0] =      1437.779000000000;     BAS[ATNO][ 22].d[  0] =        -0.000257455614;
  BAS[ATNO][ 22].a[  1] =       434.268500000000;     BAS[ATNO][ 22].d[  1] =        -0.002516001255;
  BAS[ATNO][ 22].a[  2] =       168.927000000000;     BAS[ATNO][ 22].d[  2] =        -0.014886185854;
  BAS[ATNO][ 22].a[  3] =        74.777540000000;     BAS[ATNO][ 22].d[  3] =        -0.060966558309;
  BAS[ATNO][ 22].a[  4] =        35.516020000000;     BAS[ATNO][ 22].d[  4] =        -0.183154806935;
  BAS[ATNO][ 22].a[  5] =        17.671050000000;     BAS[ATNO][ 22].d[  5] =        -0.411435681084;
  BAS[ATNO][ 22].a[  6] =         9.004611000000;     BAS[ATNO][ 22].d[  6] =        -0.659816449636;
  BAS[ATNO][ 22].a[  7] =         4.594773000000;     BAS[ATNO][ 22].d[  7] =        -0.765559140001;
  BAS[ATNO][ 22].a[  8] =         2.326486000000;     BAS[ATNO][ 22].d[  8] =        -0.601581987999;
  BAS[ATNO][ 22].a[  9] =         1.133247000000;     BAS[ATNO][ 22].d[  9] =         1.098891786137;
  BAS[ATNO][ 22].a[ 10] =         0.481307000000;     BAS[ATNO][ 22].d[ 10] =         0.407000751503;
  BAS[ATNO][ 22].a[ 11] =         0.205300000000;     BAS[ATNO][ 22].d[ 11] =        -0.079764237011;
  BAS[ATNO][ 22].a[ 12] =         2.924200000000;     BAS[ATNO][ 22].d[ 12] =        -0.990824696520;
  BAS[ATNO][ 22].a[ 13] =         6.230000000000;     BAS[ATNO][ 22].d[ 13] =         1.984115818316;
  BAS[ATNO][ 22].a[ 14] =        13.272800000000;     BAS[ATNO][ 22].d[ 14] =         0.661203243791;

  // Basis function  24 L = d
  InitBFNGauss(BAS[ATNO][ 23]);
  BAS[ATNO][ 23].l  = 2;
  BAS[ATNO][ 23].ng = 15;
  BAS[ATNO][ 23].a[  0] =      1437.779000000000;     BAS[ATNO][ 23].d[  0] =        -0.000190677706;
  BAS[ATNO][ 23].a[  1] =       434.268500000000;     BAS[ATNO][ 23].d[  1] =        -0.001863409924;
  BAS[ATNO][ 23].a[  2] =       168.927000000000;     BAS[ATNO][ 23].d[  2] =        -0.011025060658;
  BAS[ATNO][ 23].a[  3] =        74.777540000000;     BAS[ATNO][ 23].d[  3] =        -0.045153272309;
  BAS[ATNO][ 23].a[  4] =        35.516020000000;     BAS[ATNO][ 23].d[  4] =        -0.135648773715;
  BAS[ATNO][ 23].a[  5] =        17.671050000000;     BAS[ATNO][ 23].d[  5] =        -0.304718978091;
  BAS[ATNO][ 23].a[  6] =         9.004611000000;     BAS[ATNO][ 23].d[  6] =        -0.488675638755;
  BAS[ATNO][ 23].a[  7] =         4.594773000000;     BAS[ATNO][ 23].d[  7] =        -0.566991171486;
  BAS[ATNO][ 23].a[  8] =         2.326486000000;     BAS[ATNO][ 23].d[  8] =        -0.445545821737;
  BAS[ATNO][ 23].a[  9] =         1.133247000000;     BAS[ATNO][ 23].d[  9] =         2.302887183627;
  BAS[ATNO][ 23].a[ 10] =         0.481307000000;     BAS[ATNO][ 23].d[ 10] =        -1.793745026292;
  BAS[ATNO][ 23].a[ 11] =         0.205300000000;     BAS[ATNO][ 23].d[ 11] =         0.090147272747;
  BAS[ATNO][ 23].a[ 12] =         2.924200000000;     BAS[ATNO][ 23].d[ 12] =        -1.121555726077;
  BAS[ATNO][ 23].a[ 13] =         6.230000000000;     BAS[ATNO][ 23].d[ 13] =         1.431992429003;
  BAS[ATNO][ 23].a[ 14] =        13.272800000000;     BAS[ATNO][ 23].d[ 14] =         0.553772868386;

  // Basis function  25 L = d
  InitBFNGauss(BAS[ATNO][ 24]);
  BAS[ATNO][ 24].l  = 2;
  BAS[ATNO][ 24].ng = 15;
  BAS[ATNO][ 24].a[  0] =      1437.779000000000;     BAS[ATNO][ 24].d[  0] =         0.000091259915;
  BAS[ATNO][ 24].a[  1] =       434.268500000000;     BAS[ATNO][ 24].d[  1] =         0.000891843283;
  BAS[ATNO][ 24].a[  2] =       168.927000000000;     BAS[ATNO][ 24].d[  2] =         0.005276684512;
  BAS[ATNO][ 24].a[  3] =        74.777540000000;     BAS[ATNO][ 24].d[  3] =         0.021610726695;
  BAS[ATNO][ 24].a[  4] =        35.516020000000;     BAS[ATNO][ 24].d[  4] =         0.064922616354;
  BAS[ATNO][ 24].a[  5] =        17.671050000000;     BAS[ATNO][ 24].d[  5] =         0.145841003708;
  BAS[ATNO][ 24].a[  6] =         9.004611000000;     BAS[ATNO][ 24].d[  6] =         0.233884171213;
  BAS[ATNO][ 24].a[  7] =         4.594773000000;     BAS[ATNO][ 24].d[  7] =         0.271366627904;
  BAS[ATNO][ 24].a[  8] =         2.326486000000;     BAS[ATNO][ 24].d[  8] =         0.213241886827;
  BAS[ATNO][ 24].a[  9] =         1.133247000000;     BAS[ATNO][ 24].d[  9] =        -1.447874971128;
  BAS[ATNO][ 24].a[ 10] =         0.481307000000;     BAS[ATNO][ 24].d[ 10] =         2.094273111036;
  BAS[ATNO][ 24].a[ 11] =         0.205300000000;     BAS[ATNO][ 24].d[ 11] =        -1.760719167943;
  BAS[ATNO][ 24].a[ 12] =         2.924200000000;     BAS[ATNO][ 24].d[ 12] =         0.505997932377;
  BAS[ATNO][ 24].a[ 13] =         6.230000000000;     BAS[ATNO][ 24].d[ 13] =        -0.594705647837;
  BAS[ATNO][ 24].a[ 14] =        13.272800000000;     BAS[ATNO][ 24].d[ 14] =        -0.303778557942;

  // Basis function  26 L = d
  InitBFNGauss(BAS[ATNO][ 25]);
  BAS[ATNO][ 25].l  = 2;
  BAS[ATNO][ 25].ng = 15;
  BAS[ATNO][ 25].a[  0] =      1437.779000000000;     BAS[ATNO][ 25].d[  0] =        -0.001015690323;
  BAS[ATNO][ 25].a[  1] =       434.268500000000;     BAS[ATNO][ 25].d[  1] =        -0.009925897851;
  BAS[ATNO][ 25].a[  2] =       168.927000000000;     BAS[ATNO][ 25].d[  2] =        -0.058727617824;
  BAS[ATNO][ 25].a[  3] =        74.777540000000;     BAS[ATNO][ 25].d[  3] =        -0.240519685272;
  BAS[ATNO][ 25].a[  4] =        35.516020000000;     BAS[ATNO][ 25].d[  4] =        -0.722565579258;
  BAS[ATNO][ 25].a[  5] =        17.671050000000;     BAS[ATNO][ 25].d[  5] =        -1.623158388278;
  BAS[ATNO][ 25].a[  6] =         9.004611000000;     BAS[ATNO][ 25].d[  6] =        -2.603047460852;
  BAS[ATNO][ 25].a[  7] =         4.594773000000;     BAS[ATNO][ 25].d[  7] =        -3.020213843731;
  BAS[ATNO][ 25].a[  8] =         2.326486000000;     BAS[ATNO][ 25].d[  8] =        -2.373306193287;
  BAS[ATNO][ 25].a[  9] =         1.133247000000;     BAS[ATNO][ 25].d[  9] =        -0.883218071771;
  BAS[ATNO][ 25].a[ 10] =         0.481307000000;     BAS[ATNO][ 25].d[ 10] =         0.590293291821;
  BAS[ATNO][ 25].a[ 11] =         0.205300000000;     BAS[ATNO][ 25].d[ 11] =        -0.220410319878;
  BAS[ATNO][ 25].a[ 12] =         2.924200000000;     BAS[ATNO][ 25].d[ 12] =         5.770959005182;
  BAS[ATNO][ 25].a[ 13] =         6.230000000000;     BAS[ATNO][ 25].d[ 13] =        -0.455123236518;
  BAS[ATNO][ 25].a[ 14] =        13.272800000000;     BAS[ATNO][ 25].d[ 14] =         5.529003720768;

  // Basis function  27 L = f
  InitBFNGauss(BAS[ATNO][ 26]);
  BAS[ATNO][ 26].l  = 3;
  BAS[ATNO][ 26].ng = 5;
  BAS[ATNO][ 26].a[  0] =         0.413000000000;     BAS[ATNO][ 26].d[  0] =         0.006253510578;
  BAS[ATNO][ 26].a[  1] =         0.955700000000;     BAS[ATNO][ 26].d[  1] =        -0.013510510108;
  BAS[ATNO][ 26].a[  2] =         3.492200000000;     BAS[ATNO][ 26].d[  2] =         0.294169278908;
  BAS[ATNO][ 26].a[  3] =         8.463500000000;     BAS[ATNO][ 26].d[  3] =         0.596428494201;
  BAS[ATNO][ 26].a[  4] =        20.511700000000;     BAS[ATNO][ 26].d[  4] =         0.281853600138;

  // Basis function  28 L = f
  InitBFNGauss(BAS[ATNO][ 27]);
  BAS[ATNO][ 27].l  = 3;
  BAS[ATNO][ 27].ng = 5;
  BAS[ATNO][ 27].a[  0] =         0.413000000000;     BAS[ATNO][ 27].d[  0] =        -0.106565197361;
  BAS[ATNO][ 27].a[  1] =         0.955700000000;     BAS[ATNO][ 27].d[  1] =         0.380947549307;
  BAS[ATNO][ 27].a[  2] =         3.492200000000;     BAS[ATNO][ 27].d[  2] =         0.925629342814;
  BAS[ATNO][ 27].a[  3] =         8.463500000000;     BAS[ATNO][ 27].d[  3] =        -0.550424581295;
  BAS[ATNO][ 27].a[  4] =        20.511700000000;     BAS[ATNO][ 27].d[  4] =        -0.288718692764;

  // Basis function  29 L = f
  InitBFNGauss(BAS[ATNO][ 28]);
  BAS[ATNO][ 28].l  = 3;
  BAS[ATNO][ 28].ng = 5;
  BAS[ATNO][ 28].a[  0] =         0.413000000000;     BAS[ATNO][ 28].d[  0] =        -0.058716596832;
  BAS[ATNO][ 28].a[  1] =         0.955700000000;     BAS[ATNO][ 28].d[  1] =         1.108621558954;
  BAS[ATNO][ 28].a[  2] =         3.492200000000;     BAS[ATNO][ 28].d[  2] =        -0.842088811380;
  BAS[ATNO][ 28].a[  3] =         8.463500000000;     BAS[ATNO][ 28].d[  3] =         0.255684833087;
  BAS[ATNO][ 28].a[  4] =        20.511700000000;     BAS[ATNO][ 28].d[  4] =         0.240994582359;

  // Basis function  30 L = f
  InitBFNGauss(BAS[ATNO][ 29]);
  BAS[ATNO][ 29].l  = 3;
  BAS[ATNO][ 29].ng = 5;
  BAS[ATNO][ 29].a[  0] =         0.413000000000;     BAS[ATNO][ 29].d[  0] =         1.403468285957;
  BAS[ATNO][ 29].a[  1] =         0.955700000000;     BAS[ATNO][ 29].d[  1] =        -1.008905448456;
  BAS[ATNO][ 29].a[  2] =         3.492200000000;     BAS[ATNO][ 29].d[  2] =         0.348355437696;
  BAS[ATNO][ 29].a[  3] =         8.463500000000;     BAS[ATNO][ 29].d[  3] =        -0.040444131220;
  BAS[ATNO][ 29].a[  4] =        20.511700000000;     BAS[ATNO][ 29].d[  4] =        -0.133075785621;

  // Basis function  31 L = f
  InitBFNGauss(BAS[ATNO][ 30]);
  BAS[ATNO][ 30].l  = 3;
  BAS[ATNO][ 30].ng = 5;
  BAS[ATNO][ 30].a[  0] =         0.413000000000;     BAS[ATNO][ 30].d[  0] =        -0.241493469532;
  BAS[ATNO][ 30].a[  1] =         0.955700000000;     BAS[ATNO][ 30].d[  1] =         0.466091349422;
  BAS[ATNO][ 30].a[  2] =         3.492200000000;     BAS[ATNO][ 30].d[  2] =        -1.033914142101;
  BAS[ATNO][ 30].a[  3] =         8.463500000000;     BAS[ATNO][ 30].d[  3] =         1.733023486742;
  BAS[ATNO][ 30].a[  4] =        20.511700000000;     BAS[ATNO][ 30].d[  4] =        -1.357976387654;

  // Basis function  32 L = g
  InitBFNGauss(BAS[ATNO][ 31]);
  BAS[ATNO][ 31].l  = 4;
  BAS[ATNO][ 31].ng = 3;
  BAS[ATNO][ 31].a[  0] =         0.739500000000;     BAS[ATNO][ 31].d[  0] =         0.092713888026;
  BAS[ATNO][ 31].a[  1] =         4.964300000000;     BAS[ATNO][ 31].d[  1] =         0.868819999565;
  BAS[ATNO][ 31].a[  2] =        12.701900000000;     BAS[ATNO][ 31].d[  2] =         0.188602226629;

  // Basis function  33 L = g
  InitBFNGauss(BAS[ATNO][ 32]);
  BAS[ATNO][ 32].l  = 4;
  BAS[ATNO][ 32].ng = 3;
  BAS[ATNO][ 32].a[  0] =         0.739500000000;     BAS[ATNO][ 32].d[  0] =         0.993526252567;
  BAS[ATNO][ 32].a[  1] =         4.964300000000;     BAS[ATNO][ 32].d[  1] =        -0.114972541927;
  BAS[ATNO][ 32].a[  2] =        12.701900000000;     BAS[ATNO][ 32].d[  2] =        -0.116244578664;

  // Basis function  34 L = g
  InitBFNGauss(BAS[ATNO][ 33]);
  BAS[ATNO][ 33].l  = 4;
  BAS[ATNO][ 33].ng = 3;
  BAS[ATNO][ 33].a[  0] =         0.739500000000;     BAS[ATNO][ 33].d[  0] =         0.143729263538;
  BAS[ATNO][ 33].a[  1] =         4.964300000000;     BAS[ATNO][ 33].d[  1] =        -0.839329417660;
  BAS[ATNO][ 33].a[  2] =        12.701900000000;     BAS[ATNO][ 33].d[  2] =         1.185403343704;

  // Basis function  35 L = h
  InitBFNGauss(BAS[ATNO][ 34]);
  BAS[ATNO][ 34].l  = 5;
  BAS[ATNO][ 34].ng = 1;
  BAS[ATNO][ 34].a[  0] =        10.305300000000;     BAS[ATNO][ 34].d[  0] =         1.000000000000;

-------
TIMINGS
-------

Total SCF time: 0 days 0 hours 0 min 16 sec 

Total time                  ....      16.488 sec
Sum of individual times     ....      16.160 sec  ( 98.0%)

Fock matrix formation       ....      15.349 sec  ( 93.1%)
  XC integration            ....       0.086 sec  (  0.6% of F)
    Basis function eval.    ....       0.016 sec  ( 18.8% of XC)
    Density eval.           ....       0.007 sec  (  8.4% of XC)
    XC-Functional eval.     ....       0.003 sec  (  3.0% of XC)
    XC-Potential eval.      ....       0.017 sec  ( 19.5% of XC)
Diagonalization             ....       0.014 sec  (  0.1%)
Density matrix formation    ....       0.004 sec  (  0.0%)
Population analysis         ....       0.002 sec  (  0.0%)
Initial guess               ....       0.079 sec  (  0.5%)
Orbital Transformation      ....       0.000 sec  (  0.0%)
Orbital Orthonormalization  ....       0.000 sec  (  0.0%)
DIIS solution               ....       0.005 sec  (  0.0%)
SOSCF solution              ....       0.003 sec  (  0.0%)
Grid generation             ....       0.703 sec  (  4.3%)

-------------------------   --------------------
FINAL SINGLE POINT ENERGY     -2125.026830325632
-------------------------   --------------------


                            ***************************************
                            *     ORCA property calculations      *
                            ***************************************

                                    ---------------------
                                    Active property flags
                                    ---------------------
   (+) Dipole Moment


------------------------------------------------------------------------------
                       ORCA ELECTRIC PROPERTIES CALCULATION
------------------------------------------------------------------------------

Dipole Moment Calculation                       ... on
Quadrupole Moment Calculation                   ... off
Polarizability Calculation                      ... off
GBWName                                         ... Kr_cc-pcvqz_34.25899725_.gbw
Electron density file                           ... Kr_cc-pcvqz_34.25899725_.scfp
The origin for moment calculation is the CENTER OF MASS  = ( 0.000000,  0.000000  0.000000)

-------------
DIPOLE MOMENT
-------------
                                X             Y             Z
Electronic contribution:      0.00000      -0.00000       0.00000
Nuclear contribution   :      0.00000       0.00000       0.00000
                        -----------------------------------------
Total Dipole Moment    :      0.00000      -0.00000       0.00000
                        -----------------------------------------
Magnitude (a.u.)       :      0.00000
Magnitude (Debye)      :      0.00000



--------------------
Rotational spectrum 
--------------------
 
Rotational constants in cm-1:     0.000000     0.000000     0.000000 
Rotational constants in MHz :     0.000000     0.000000     0.000000 

 Dipole components along the rotational axes: 
x,y,z [a.u.] :     0.000000    -0.000000     0.000000 
x,y,z [Debye]:     0.000000    -0.000000     0.000000 

 

Timings for individual modules:

Sum of individual times         ...       19.023 sec (=   0.317 min)
GTO integral calculation        ...        1.701 sec (=   0.028 min)   8.9 %
Relativistic integrals          ...        0.533 sec (=   0.009 min)   2.8 %
SCF iterations                  ...       16.790 sec (=   0.280 min)  88.3 %
                             ****ORCA TERMINATED NORMALLY****
TOTAL RUN TIME: 0 days 0 hours 0 minutes 19 seconds 403 msec
