
                                 *****************
                                 * O   R   C   A *
                                 *****************

           --- An Ab Initio, DFT and Semiempirical electronic structure package ---

                  #######################################################
                  #                        -***-                        #
                  #          Department of theory and spectroscopy      #
                  #               Directorship: Frank Neese             #
                  #        Max Planck Institute fuer Kohlenforschung    #
                  #                Kaiser Wilhelm Platz 1               #
                  #                 D-45470 Muelheim/Ruhr               #
                  #                      Germany                        #
                  #                                                     #
                  #                  All rights reserved                #
                  #                        -***-                        #
                  #######################################################


                         Program Version 4.2.1 -  RELEASE  -


 With contributions from (in alphabetic order):
   Daniel Aravena         : Magnetic Suceptibility
   Michael Atanasov       : Ab Initio Ligand Field Theory (pilot matlab implementation)
   Alexander A. Auer      : GIAO ZORA, VPT2
   Ute Becker             : Parallelization
   Giovanni Bistoni       : ED, misc. LED, open-shell LED, HFLD
   Martin Brehm           : Molecular dynamics
   Dmytro Bykov           : SCF Hessian
   Vijay G. Chilkuri      : MRCI spin determinant printing, contributions to CSF-ICE
   Dipayan Datta          : RHF DLPNO-CCSD density
   Achintya Kumar Dutta   : EOM-CC, STEOM-CC
   Dmitry Ganyushin       : Spin-Orbit,Spin-Spin,Magnetic field MRCI
   Miquel Garcia          : C-PCM Hessian, Gaussian charge scheme
   Yang Guo               : DLPNO-NEVPT2, CIM, IAO-localization
   Andreas Hansen         : Spin unrestricted coupled pair/coupled cluster methods
   Benjamin Helmich-Paris : CASSCF linear response (MC-RPA)
   Lee Huntington         : MR-EOM, pCC
   Robert Izsak           : Overlap fitted RIJCOSX, COSX-SCS-MP3, EOM
   Christian Kollmar      : KDIIS, OOCD, Brueckner-CCSD(T), CCSD density
   Simone Kossmann        : Meta GGA functionals, TD-DFT gradient, OOMP2, MP2 Hessian
   Martin Krupicka        : AUTO-CI
   Lucas Lang             : DCDCAS
   Dagmar Lenk            : GEPOL surface, SMD
   Dimitrios Liakos       : Extrapolation schemes; Compound Job, initial MDCI parallelization
   Dimitrios Manganas     : Further ROCIS development; embedding schemes
   Dimitrios Pantazis     : SARC Basis sets
   Taras Petrenko         : DFT Hessian,TD-DFT gradient, ASA, ECA, R-Raman, ABS, FL, XAS/XES, NRVS
   Peter Pinski           : DLPNO-MP2, DLPNO-MP2 Gradient
   Christoph Reimann      : Effective Core Potentials
   Marius Retegan         : Local ZFS, SOC
   Christoph Riplinger    : Optimizer, TS searches, QM/MM, DLPNO-CCSD(T), (RO)-DLPNO pert. Triples
   Tobias Risthaus        : Range-separated hybrids, TD-DFT gradient, RPA, STAB
   Michael Roemelt        : Original ROCIS implementation
   Masaaki Saitow         : Open-shell DLPNO-CCSD energy and density
   Barbara Sandhoefer     : DKH picture change effects
   Avijit Sen             : IP-ROCIS
   Kantharuban Sivalingam : CASSCF convergence, NEVPT2, FIC-MRCI
   Bernardo de Souza      : ESD, SOC TD-DFT
   Georgi Stoychev        : AutoAux, RI-MP2 NMR
   Willem Van den Heuvel  : Paramagnetic NMR
   Boris Wezisla          : Elementary symmetry handling
   Frank Wennmohs         : Technical directorship


 We gratefully acknowledge several colleagues who have allowed us to
 interface, adapt or use parts of their codes:
   Stefan Grimme, W. Hujo, H. Kruse,             : VdW corrections, initial TS optimization,
                  C. Bannwarth                     DFT functionals, gCP, sTDA/sTD-DF
   Ed Valeev, F. Pavosevic, A. Kumar             : LibInt (2-el integral package), F12 methods
   Garnet Chan, S. Sharma, J. Yang, R. Olivares  : DMRG
   Ulf Ekstrom                                   : XCFun DFT Library
   Mihaly Kallay                                 : mrcc  (arbitrary order and MRCC methods)
   Andreas Klamt, Michael Diedenhofen            : otool_cosmo (COSMO solvation model)
   Jiri Pittner, Ondrej Demel                    : Mk-CCSD
   Frank Weinhold                                : gennbo (NPA and NBO analysis)
   Christopher J. Cramer and Donald G. Truhlar   : smd solvation model
   Lars Goerigk                                  : TD-DFT with DH, B97 family of functionals
   V. Asgeirsson, H. Jonsson                     : NEB implementation
   FAccTs GmbH                                   : IRC, NEB, NEB-TS, Multilevel, MM, QM/MM, CI optimization
   S Lehtola, MJT Oliveira, MAL Marques          : LibXC Library


 Your calculation uses the libint2 library for the computation of 2-el integrals
 For citations please refer to: http://libint.valeyev.net

 Your ORCA version has been built with support for libXC version: 4.2.3
 For citations please refer to: https://tddft.org/programs/libxc/

 This ORCA versions uses:
   CBLAS   interface :  Fast vector & matrix operations
   LAPACKE interface :  Fast linear algebra routines
   SCALAPACK package :  Parallel linear algebra routines


----- Orbital basis set information -----
Your calculation utilizes the basis: cc-pCVTZ 
             H : cc-pVTZ. Obtained from the ccRepo (grant-hill.group.shef.ac.uk/ccrepo) Feb. 2017
                 T. H. Dunning, Jr., J. Chem. Phys. 90, 1007 (1989)
            He : cc-pVTZ. Obtained from the ccRepo (grant-hill.group.shef.ac.uk/ccrepo) Feb. 2017
                 D. E. Woon, T. H. Dunning, Jr., J. Chem. Phys. 100, 2975 (1994)
  Li-Be, Na-Mg : Obtained from the ccRepo (grant-hill.group.shef.ac.uk/ccrepo) Feb. 2017
                 B. P. Prascher, D. E. Woon, K. A. Peterson, T. H. Dunning, Jr., A. K. Wilson, Theor. Chem. Acc. 128, 69 (2011)
          B-Ne : Obtained from the ccRepo (grant-hill.group.shef.ac.uk/ccrepo) Feb. 2017
                 D. E. Woon, T. H. Dunning, Jr., J. Chem. Phys. 103, 4572 (1995)
                  K. A. Peterson, T. H. Dunning, Jr., J. Chem. Phys. 117, 10548 (2002)
         Al-Ar : Obtained from the EMSL Basis Set Exchange (bse.pnl.gov) Feb. 2017
                 K. A. Peterson, T. H. Dunning, Jr., J. Chem. Phys. 117, 10548 (2002)
            Ca : Obtained from the Peterson Research Group Website (tyr0.chem.wsu.edu/~kipeters) Feb. 2017
                 J. Koput, K. A. Peterson, J. Phys. Chem. 106, 9595 (2002)
         Ga-Kr : Obtained from the Peterson Research Group Website (tyr0.chem.wsu.edu/~kipeters) Feb. 2017
                 N. J. DeYonker, K. A. Peterson, A. K. Wilson, J. Phys. Chem. A 111, 11383 (2007)

================================================================================
                                        WARNINGS
                       Please study these warnings very carefully!
================================================================================


INFO   : the flag for use of LIBINT has been found!

================================================================================
                                       INPUT FILE
================================================================================
NAME = Kr_cc-pcvtz_1096.287912_.inp
|  1> ! LDA cc-pcvtz nori grid5 finalgrid6 verytightscf
|  2> %Pal NProcs 18 End
|  3> 
|  4> % REL
|  5>   Method ZORA
|  6>   ModelPot 1, 0, 0, 0
|  7>   velit 1096.287912
|  8> END
|  9> 
| 10> *xyz 34 1
| 11> Kr 0.0 0.0 0.0
| 12> **                         ****END OF INPUT****
================================================================================

                       ****************************
                       * Single Point Calculation *
                       ****************************

---------------------------------
CARTESIAN COORDINATES (ANGSTROEM)
---------------------------------
  Kr     0.000000    0.000000    0.000000

----------------------------
CARTESIAN COORDINATES (A.U.)
----------------------------
  NO LB      ZA    FRAG     MASS         X           Y           Z
   0 Kr   36.0000    0    83.800    0.000000    0.000000    0.000000

--------------------------------
INTERNAL COORDINATES (ANGSTROEM)
--------------------------------
 Kr     0   0   0     0.000000000000     0.00000000     0.00000000

---------------------------
INTERNAL COORDINATES (A.U.)
---------------------------
 Kr     0   0   0     0.000000000000     0.00000000     0.00000000

---------------------
BASIS SET INFORMATION
---------------------
There are 1 groups of distinct atoms

 Group   1 Type Kr  : 76s37p11d3f1g contracted to 8s7p5d3f1g pattern {181818181111/1111111111/71111/111/1}

Atom   0Kr   basis set group =>   1


           ************************************************************
           *        Program running with 18 parallel MPI-processes    *
           *              working on a common directory               *
           ************************************************************
------------------------------------------------------------------------------
                           ORCA GTO INTEGRAL CALCULATION
------------------------------------------------------------------------------

                         BASIS SET STATISTICS AND STARTUP INFO

 # of primitive gaussian shells          ...  128
 # of primitive gaussian functions       ...  272
 # of contracted shells                  ...   24
 # of contracted basis functions         ...   84
 Highest angular momentum                ...    4
 Maximum contraction depth               ...   18
 Integral package used                   ... LIBINT
 Integral threshhold            Thresh   ...  1.000e-12
 Primitive cut-off              TCut     ...  1.000e-14


------------------------------ INTEGRAL EVALUATION ----------------------------


 * One electron integrals 
 Pre-screening matrix                    ... done
 Shell pair data                         ... done (   0.000 sec)



           ************************************************************
           *        Program running with 18 parallel MPI-processes    *
           *              working on a common directory               *
           ************************************************************
------------------------------------------------------------------------------
                          ORCA RELATIVISTIC HAMILTONIAN
------------------------------------------------------------------------------

Relativistic Method            ... ZORA(MP)
Treatment of potential         ... Van Wuellen
Nucleus model                  ... Point Nucleus
Speed of light used            ... 1096.28791200000001


            *************************************************
            *         ZERO ORDER REGULAR APPROXIMATION      *
            *                     ZORA(MP)                  *
            *            Programmed by FN according to      *
            *                   C. van Wuellen              *
            *       J. Chem. Phys. (1998) vol 109, 392-399  *
            *************************************************

Terms included in model potential: +V(e,N)
Basis function cutoff value   ... 1.000000e-12
Loading the fitted atomic densities  (DKH4)  ... done
Calculating the cutoffs                      ... done
Number of fit functions                      ... 27
Setting up the integration grid ... done


           ************************************************************
           *        Program running with 18 parallel MPI-processes    *
           *              working on a common directory               *
           ************************************************************
-------------------------------------------------------------------------------
                                 ORCA SCF
-------------------------------------------------------------------------------

------------
SCF SETTINGS
------------
Hamiltonian:
 Density Functional     Method          .... DFT(GTOs)
 Exchange Functional    Exchange        .... Slater
   X-Alpha parameter    XAlpha          ....  0.666667
 Correlation Functional Correlation     .... VWN-5
 Gradients option       PostSCFGGA      .... off
   Density functional embedding theory  .... OFF

Relativistic Settings:
 Scalar relativistic method             .... ZORA
 Speed of light used       Velit        ....       1096.28791
Orbital energies will be scaled


General Settings:
 Integral files         IntName         .... Kr_cc-pcvtz_1096.287912_
 Hartree-Fock type      HFTyp           .... RHF
 Total Charge           Charge          ....   34
 Multiplicity           Mult            ....    1
 Number of Electrons    NEL             ....    2
 Basis Dimension        Dim             ....   84
 Nuclear Repulsion      ENuc            ....      0.0000000000 Eh

Convergence Acceleration:
 DIIS                   CNVDIIS         .... on
   Start iteration      DIISMaxIt       ....    12
   Startup error        DIISStart       ....  0.200000
   # of expansion vecs  DIISMaxEq       ....     5
   Bias factor          DIISBfac        ....   1.050
   Max. coefficient     DIISMaxC        ....  10.000
 Newton-Raphson         CNVNR           .... off
 SOSCF                  CNVSOSCF        .... on
   Start iteration      SOSCFMaxIt      ....   150
   Startup grad/error   SOSCFStart      ....  0.003300
 Level Shifting         CNVShift        .... on
   Level shift para.    LevelShift      ....    0.2500
   Turn off err/grad.   ShiftErr        ....    0.0010
 Zerner damping         CNVZerner       .... off
 Static damping         CNVDamp         .... on
   Fraction old density DampFac         ....    0.7000
   Max. Damping (<1)    DampMax         ....    0.9800
   Min. Damping (>=0)   DampMin         ....    0.0000
   Turn off err/grad.   DampErr         ....    0.1000
 Fernandez-Rico         CNVRico         .... off

SCF Procedure:
 Maximum # iterations   MaxIter         ....   125
 SCF integral mode      SCFMode         .... Direct
   Integral package                     .... LIBINT
 Reset frequency        DirectResetFreq ....    20
 Integral Threshold     Thresh          ....  1.000e-12 Eh
 Primitive CutOff       TCut            ....  1.000e-14 Eh

Convergence Tolerance:
 Convergence Check Mode ConvCheckMode   .... Total+1el-Energy
 Convergence forced     ConvForced      .... 0
 Energy Change          TolE            ....  1.000e-09 Eh
 1-El. energy change                    ....  1.000e-06 Eh
 Orbital Gradient       TolG            ....  2.000e-06
 Orbital Rotation angle TolX            ....  2.000e-06
 DIIS Error             TolErr          ....  1.000e-08


Diagonalization of the overlap matrix:
Smallest eigenvalue                        ... 1.149e-03
Time for diagonalization                   ...    0.002 sec
Threshold for overlap eigenvalues          ... 1.000e-08
Number of eigenvalues below threshold      ... 0
Time for construction of square roots      ...    0.001 sec
Total time needed                          ...    0.003 sec

-------------------
DFT GRID GENERATION
-------------------

General Integration Accuracy     IntAcc      ...  5.010
Radial Grid Type                 RadialGrid  ... Gauss-Chebyshev
Angular Grid (max. acc.)         AngularGrid ... Lebedev-434
Angular grid pruning method      GridPruning ... 3 (G Style)
Weight generation scheme         WeightScheme... Becke
Basis function cutoff            BFCut       ...    1.0000e-12
Integration weight cutoff        WCut        ...    1.0000e-14
Grids for H and He will be reduced by one unit

# of grid points (after initial pruning)     ...  16106 (   0.0 sec)
# of grid points (after weights+screening)   ...  16106 (   0.0 sec)
Grid point division into batches done        ...    0.2 sec
Reduced shell lists constructed in    0.2 sec

Total number of grid points                  ...    16106
Total number of batches                      ...      252
Average number of points per batch           ...       63
Average number of grid points per atom       ...    16106
Average number of shells per batch           ...     0.53 ( 2.22%)
Average number of basis functions per batch  ...     1.60 ( 1.90%)
Average number of large shells per batch     ...     0.53 (100.00%)
Average number of large basis fcns per batch ...     1.60 (100.00%)
Maximum spatial batch extension              ...  17.34, 17.34, 17.34 au
Average spatial batch extension              ...   0.86,  0.87,  0.87 au

Time for grid setup =    0.250 sec

------------------------------
INITIAL GUESS: MODEL POTENTIAL
------------------------------
Loading ZORA relativistic densities                ... done
Calculating cut-offs                               ... done
Setting up the integral package                    ... done
Initializing the effective Hamiltonian             ... done
Starting the Coulomb interaction                   ... done (   0.0 sec)
Reading the grid                                   ... done
Mapping shells                                     ... done
Starting the XC term evaluation                    ... done (   0.0 sec)
  promolecular density results
     # of electrons  =     36.000000565
     EX              =    -91.042004939
     EC              =     -3.295965580
     EX+EC           =    -94.337970520
Transforming the Hamiltonian                       ... done (   0.0 sec)
Diagonalizing the Hamiltonian                      ... done (   0.0 sec)
Back transforming the eigenvectors                 ... done (   0.0 sec)
Now organizing SCF variables                       ... done
                      ------------------
                      INITIAL GUESS DONE (   0.3 sec)
                      ------------------
--------------
SCF ITERATIONS
--------------
ITER       Energy         Delta-E        Max-DP      RMS-DP      [F,P]     Damp
               ***  Starting incremental Fock matrix formation  ***
  0  -1271.3406600982   0.000000000000 0.01797686  0.00029679  6.1906070 0.7000
                      *** Initiating the SOSCF procedure ***
                      *** Re-Reading the Fockian *** 
                      *** Removing any level shift *** 
ITER      Energy       Delta-E        Grad      Rot      Max-DP    RMS-DP
  1  -1271.35824966  -0.0175895588  0.002915  0.002915  0.041917  0.000692
               *** Restarting incremental Fock matrix formation ***
  2  -1271.39909596  -0.0408463051  0.010789  0.000023  0.000126  0.000002
  3  -1271.39909661  -0.0000006447  0.000050  0.000000  0.000001  0.000000
                 **** Energy Check signals convergence ****
              ***Rediagonalizing the Fockian in SOSCF/NRSCF***

               *****************************************************
               *                     SUCCESS                       *
               *           SCF CONVERGED AFTER   4 CYCLES          *
               *****************************************************

Setting up the final grid:

General Integration Accuracy     IntAcc      ...  5.340
Radial Grid Type                 RadialGrid  ... Gauss-Chebyshev
Angular Grid (max. acc.)         AngularGrid ... Lebedev-590
Angular grid pruning method      GridPruning ... 3 (G Style)
Weight generation scheme         WeightScheme... Becke
Basis function cutoff            BFCut       ...    1.0000e-12
Integration weight cutoff        WCut        ...    1.0000e-14
Grids for H and He will be reduced by one unit

# of grid points (after initial pruning)     ...  24180 (   0.0 sec)
# of grid points (after weights+screening)   ...  24180 (   0.0 sec)
Grid point division into batches done        ...    0.4 sec
Reduced shell lists constructed in    0.4 sec

Total number of grid points                  ...    24180
Total number of batches                      ...      378
Average number of points per batch           ...       63
Average number of grid points per atom       ...    24180
Average number of shells per batch           ...     0.27 ( 1.14%)
Average number of basis functions per batch  ...     0.55 ( 0.65%)
Average number of large shells per batch     ...     0.14 (50.00%)
Average number of large basis fcns per batch ...     0.41 (75.00%)
Maximum spatial batch extension              ...  17.58, 17.58, 17.58 au
Average spatial batch extension              ...   0.77,  0.77,  0.77 au

Final grid set up in    0.4 sec
Final integration                            ... done (   0.0 sec)
Change in XC energy                          ...    -0.000060018
Integrated number of electrons               ...     1.999999890
Previous integrated no of electrons          ...     1.999998353

----------------
TOTAL SCF ENERGY
----------------

Total Energy       :        -1271.39915662 Eh          -34596.52991 eV

Components:
Nuclear Repulsion  :            0.00000000 Eh               0.00000 eV
Electronic Energy  :        -1271.39915662 Eh          -34596.52991 eV
One Electron Energy:        -1296.49276813 Eh          -35279.36179 eV
Two Electron Energy:           25.09361150 Eh             682.83188 eV

Virial components:
Potential Energy   :        -2537.86184164 Eh          -69058.73159 eV
Kinetic Energy     :         1266.46268501 Eh           34462.20168 eV
Virial Ratio       :            2.00389784


DFT components:
N(Alpha)           :        0.999999945082 electrons
N(Beta)            :        0.999999945082 electrons
N(Total)           :        1.999999890163 electrons
E(X)               :      -19.058135454353 Eh       
E(C)               :       -0.277903695357 Eh       
E(XC)              :      -19.336039149710 Eh       
DFET-embed. en.    :        0.000000000000 Eh       

---------------
SCF CONVERGENCE
---------------

  Last Energy change         ...   -1.5234e-11  Tolerance :   1.0000e-09
  Last MAX-Density change    ...    0.0000e+00  Tolerance :   1.0000e-08
  Last RMS-Density change    ...    0.0000e+00  Tolerance :   1.0000e-09
  Last Orbital Gradient      ...    2.1519e-10  Tolerance :   2.0000e-06
  Last Orbital Rotation      ...    0.0000e+00  Tolerance :   2.0000e-06

================================================================================
                                        WARNING
Number of found core electrons (2) does not match given number of chemical core electrons (18)
================================================================================
             **** THE GBW FILE WAS UPDATED (Kr_cc-pcvtz_1096.287912_.gbw) ****
             **** DENSITY FILE WAS UPDATED (Kr_cc-pcvtz_1096.287912_.scfp) ****
             **** ENERGY FILE WAS UPDATED (Kr_cc-pcvtz_1096.287912_.en.tmp) ****
             **** THE GBW FILE WAS UPDATED (Kr_cc-pcvtz_1096.287912_.gbw) ****
             **** DENSITY FILE WAS UPDATED (Kr_cc-pcvtz_1096.287912_.scfp) ****
----------------
ORBITAL ENERGIES
----------------

  NO   OCC          E(Eh)            E(eV) 
   0   2.0000    -616.670906    -16780.4684 
   1   0.0000    -148.915226     -4052.1893 
   2   0.0000    -147.185503     -4005.1212 
   3   0.0000    -147.185503     -4005.1212 
   4   0.0000    -147.185503     -4005.1212 
   5   0.0000     -65.245202     -1775.4122 
   6   0.0000     -64.874093     -1765.3138 
   7   0.0000     -64.874093     -1765.3138 
   8   0.0000     -64.874093     -1765.3138 
   9   0.0000     -64.356402     -1751.2267 
  10   0.0000     -64.356402     -1751.2267 
  11   0.0000     -64.356402     -1751.2267 
  12   0.0000     -64.356402     -1751.2267 
  13   0.0000     -64.356402     -1751.2267 
  14   0.0000     -36.463857      -992.2320 
  15   0.0000     -36.369654      -989.6686 
  16   0.0000     -36.369654      -989.6686 
  17   0.0000     -36.369654      -989.6686 
  18   0.0000     -36.095501      -982.2085 
  19   0.0000     -36.095501      -982.2085 
  20   0.0000     -36.095501      -982.2085 
  21   0.0000     -36.095501      -982.2085 
  22   0.0000     -36.095501      -982.2085 
  23   0.0000     -35.683257      -970.9908 
  24   0.0000     -35.683257      -970.9908 
  25   0.0000     -35.683257      -970.9908 
  26   0.0000     -35.683257      -970.9908 
  27   0.0000     -35.683257      -970.9908 
  28   0.0000     -35.683257      -970.9908 
  29   0.0000     -35.683257      -970.9908 
  30   0.0000     -22.759482      -619.3170 
  31   0.0000     -22.615403      -615.3964 
  32   0.0000     -22.615403      -615.3964 
  33   0.0000     -22.615403      -615.3964 
  34   0.0000     -22.364895      -608.5797 
  35   0.0000     -22.364895      -608.5797 
  36   0.0000     -22.364895      -608.5797 
  37   0.0000     -22.364895      -608.5797 
  38   0.0000     -22.364895      -608.5797 
  39   0.0000     -20.213747      -550.0440 
  40   0.0000     -20.213747      -550.0440 
  41   0.0000     -20.213747      -550.0440 
  42   0.0000     -20.213747      -550.0440 
  43   0.0000     -20.213747      -550.0440 
  44   0.0000     -20.213747      -550.0440 
  45   0.0000     -20.213747      -550.0440 
  46   0.0000     -16.837084      -458.1603 
  47   0.0000     -16.837084      -458.1603 
  48   0.0000     -16.837084      -458.1603 
  49   0.0000     -16.837084      -458.1603 
  50   0.0000     -16.837084      -458.1603 
  51   0.0000     -16.837084      -458.1603 
  52   0.0000     -16.837084      -458.1603 
  53   0.0000     -16.837084      -458.1603 
  54   0.0000     -16.837084      -458.1603 
  55   0.0000     -15.570895      -423.7056 
  56   0.0000     -15.570895      -423.7056 
  57   0.0000     -15.570895      -423.7056 
  58   0.0000     -15.570895      -423.7056 
  59   0.0000     -15.570895      -423.7056 
  60   0.0000     -15.352211      -417.7549 
  61   0.0000     -15.352211      -417.7549 
  62   0.0000     -15.352211      -417.7549 
  63   0.0000     -15.352211      -417.7549 
  64   0.0000     -15.352211      -417.7549 
  65   0.0000     -15.352211      -417.7549 
  66   0.0000     -15.352211      -417.7549 
  67   0.0000     -14.698422      -399.9644 
  68   0.0000     -14.356714      -390.6660 
  69   0.0000     -14.356714      -390.6660 
  70   0.0000     -14.356714      -390.6660 
  71   0.0000     -11.238699      -305.8205 
  72   0.0000     -11.238699      -305.8205 
  73   0.0000     -11.238699      -305.8205 
  74   0.0000     -11.238698      -305.8205 
  75   0.0000     -11.238698      -305.8205 
  76   0.0000      -9.696384      -263.8520 
  77   0.0000      -9.696384      -263.8520 
  78   0.0000      -9.696384      -263.8520 
  79   0.0000      -9.474331      -257.8096 
  80   0.0000      -7.820328      -212.8019 
  81   0.0000      -7.820328      -212.8019 
  82   0.0000      -7.820328      -212.8019 
  83   0.0000      27.496796       748.2258 

                    ********************************
                    * MULLIKEN POPULATION ANALYSIS *
                    ********************************

-----------------------
MULLIKEN ATOMIC CHARGES
-----------------------
   0 Kr:   34.000000
Sum of atomic charges:   34.0000000

--------------------------------
MULLIKEN REDUCED ORBITAL CHARGES
--------------------------------
  0 Krs       :     2.000000  s :     2.000000
      pz      :     0.000000  p :     0.000000
      px      :     0.000000
      py      :     0.000000
      dz2     :     0.000000  d :     0.000000
      dxz     :     0.000000
      dyz     :     0.000000
      dx2y2   :     0.000000
      dxy     :     0.000000
      f0      :     0.000000  f :     0.000000
      f+1     :     0.000000
      f-1     :     0.000000
      f+2     :     0.000000
      f-2     :     0.000000
      f+3     :     0.000000
      f-3     :     0.000000
      g0      :     0.000000  g :     0.000000
      g+1     :     0.000000
      g-1     :     0.000000
      g+2     :     0.000000
      g-2     :     0.000000
      g+3     :     0.000000
      g-3     :     0.000000
      g+4     :     0.000000
      g-4     :     0.000000


                     *******************************
                     * LOEWDIN POPULATION ANALYSIS *
                     *******************************

----------------------
LOEWDIN ATOMIC CHARGES
----------------------
   0 Kr:   34.000000

-------------------------------
LOEWDIN REDUCED ORBITAL CHARGES
-------------------------------
  0 Krs       :     2.000000  s :     2.000000
      pz      :     0.000000  p :     0.000000
      px      :     0.000000
      py      :     0.000000
      dz2     :     0.000000  d :     0.000000
      dxz     :     0.000000
      dyz     :     0.000000
      dx2y2   :     0.000000
      dxy     :     0.000000
      f0      :     0.000000  f :     0.000000
      f+1     :     0.000000
      f-1     :     0.000000
      f+2     :     0.000000
      f-2     :     0.000000
      f+3     :     0.000000
      f-3     :     0.000000
      g0      :     0.000000  g :     0.000000
      g+1     :     0.000000
      g-1     :     0.000000
      g+2     :     0.000000
      g-2     :     0.000000
      g+3     :     0.000000
      g-3     :     0.000000
      g+4     :     0.000000
      g-4     :     0.000000


                      *****************************
                      * MAYER POPULATION ANALYSIS *
                      *****************************

  NA   - Mulliken gross atomic population
  ZA   - Total nuclear charge
  QA   - Mulliken gross atomic charge
  VA   - Mayer's total valence
  BVA  - Mayer's bonded valence
  FA   - Mayer's free valence

  ATOM       NA         ZA         QA         VA         BVA        FA
  0 Kr     2.0000    36.0000    34.0000     0.0000     0.0000     0.0000

  Mayer bond orders larger than 0.100000


--------------------------
ATOM BASIS FOR ELEMENT Kr
--------------------------
 NewGTO Kr
 S 76
    1   11718110.000000000000         0.000005578405
    2    1754604.000000000000         0.000043631096
    3     399281.299999999988         0.000229611132
    4     113084.600000000006         0.000969546700
    5      36885.930000000000         0.003520073126
    6      13312.209999999999         0.011372674211
    7       5189.988000000000         0.033004732392
    8       2151.660000000000         0.085116896275
    9        938.032500000000         0.186191616772
   10        426.557300000000         0.313761469563
   11        201.066600000000         0.333044122738
   12         97.097610000000         0.160260600677
   13         42.998720000000         0.017774690785
   14         21.177070000000        -0.001373981058
   15         10.426750000000         0.000654665664
   16          4.585008000000        -0.000337493498
   17          2.117603000000         0.000120633007
   18          0.349225000000         0.000036458861
   19   11718110.000000000000         0.000000036451
   20    1754604.000000000000         0.000000279460
   21     399281.299999999988         0.000001470203
   22     113084.600000000006         0.000006202799
   23      36885.930000000000         0.000022634244
   24      13312.209999999999         0.000073449408
   25       5189.988000000000         0.000217557674
   26       2151.660000000000         0.000581179834
   27        938.032500000000         0.001390575302
   28        426.557300000000         0.002764538928
   29        201.066600000000         0.004095625677
   30         97.097610000000         0.002208482153
   31         42.998720000000        -0.006720748434
   32         21.177070000000        -0.012045642199
   33         10.426750000000        -0.004910448341
   34          4.585008000000        -0.000348800649
   35          2.117603000000        -0.000007462395
   36          0.349225000000         0.000002334910
   37   11718110.000000000000        -0.000000005429
   38    1754604.000000000000        -0.000000042659
   39     399281.299999999988        -0.000000226479
   40     113084.600000000006        -0.000000952451
   41      36885.930000000000        -0.000003483272
   42      13312.209999999999        -0.000011290579
   43       5189.988000000000        -0.000033598722
   44       2151.660000000000        -0.000089943807
   45        938.032500000000        -0.000218400610
   46        426.557300000000        -0.000442361580
   47        201.066600000000        -0.000691346110
   48         97.097610000000        -0.000394337257
   49         42.998720000000         0.001489973273
   50         21.177070000000         0.003971938352
   51         10.426750000000         0.001440316288
   52          4.585008000000        -0.005161012305
   53          2.117603000000        -0.004672226488
   54          0.349225000000         0.000082566188
   55   11718110.000000000000        -0.000000000085
   56    1754604.000000000000        -0.000000000765
   57     399281.299999999988        -0.000000003952
   58     113084.600000000006        -0.000000016615
   59      36885.930000000000        -0.000000060767
   60      13312.209999999999        -0.000000197131
   61       5189.988000000000        -0.000000586464
   62       2151.660000000000        -0.000001572331
   63        938.032500000000        -0.000003821129
   64        426.557300000000        -0.000007777347
   65        201.066600000000        -0.000012219614
   66         97.097610000000        -0.000007110314
   67         42.998720000000         0.000027723697
   68         21.177070000000         0.000077952452
   69         10.426750000000         0.000029413822
   70          4.585008000000        -0.000134113409
   71          2.117603000000        -0.000213810038
   72          0.349225000000         0.000304750783
   73          0.707057000000        -0.000711720216
   74          0.144821000000        -0.000108639887
   75          2.211600000000         0.007370031869
   76         10.467400000000         0.012495698591
 S 76
    1   11718110.000000000000        -0.000000498550
    2    1754604.000000000000        -0.000003899375
    3     399281.299999999988        -0.000020520686
    4     113084.600000000006        -0.000086649821
    5      36885.930000000000        -0.000314594137
    6      13312.209999999999        -0.001016392700
    7       5189.988000000000        -0.002949681706
    8       2151.660000000000        -0.007607022799
    9        938.032500000000        -0.016640219931
   10        426.557300000000        -0.028041326187
   11        201.066600000000        -0.029764645396
   12         97.097610000000        -0.014322726703
   13         42.998720000000        -0.001588550382
   14         21.177070000000         0.000122794717
   15         10.426750000000        -0.000058508438
   16          4.585008000000         0.000030162293
   17          2.117603000000        -0.000010781150
   18          0.349225000000        -0.000003258382
   19   11718110.000000000000         0.000002321977
   20    1754604.000000000000         0.000017801827
   21     399281.299999999988         0.000093653089
   22     113084.600000000006         0.000395123156
   23      36885.930000000000         0.001441818975
   24      13312.209999999999         0.004678784487
   25       5189.988000000000         0.013858593190
   26       2151.660000000000         0.037021607870
   27        938.032500000000         0.088580729326
   28        426.557300000000         0.176103281945
   29        201.066600000000         0.260894544133
   30         97.097610000000         0.140682032507
   31         42.998720000000        -0.428116907467
   32         21.177070000000        -0.767316785880
   33         10.426750000000        -0.312799382225
   34          4.585008000000        -0.022218872865
   35          2.117603000000        -0.000475360376
   36          0.349225000000         0.000148735553
   37   11718110.000000000000        -0.000000022592
   38    1754604.000000000000        -0.000000177508
   39     399281.299999999988        -0.000000942408
   40     113084.600000000006        -0.000003963278
   41      36885.930000000000        -0.000014494367
   42      13312.209999999999        -0.000046981629
   43       5189.988000000000        -0.000139808832
   44       2151.660000000000        -0.000374268363
   45        938.032500000000        -0.000908794524
   46        426.557300000000        -0.001840726459
   47        201.066600000000        -0.002876784813
   48         97.097610000000        -0.001640890746
   49         42.998720000000         0.006199980624
   50         21.177070000000         0.016527773525
   51         10.426750000000         0.005993351181
   52          4.585008000000        -0.021475671317
   53          2.117603000000        -0.019441767323
   54          0.349225000000         0.000343569094
   55   11718110.000000000000         0.000000000843
   56    1754604.000000000000         0.000000007591
   57     399281.299999999988         0.000000039220
   58     113084.600000000006         0.000000164894
   59      36885.930000000000         0.000000603067
   60      13312.209999999999         0.000001956382
   61       5189.988000000000         0.000005820225
   62       2151.660000000000         0.000015604241
   63        938.032500000000         0.000037921920
   64        426.557300000000         0.000077184504
   65        201.066600000000         0.000121270776
   66         97.097610000000         0.000070564689
   67         42.998720000000        -0.000275137508
   68         21.177070000000        -0.000773621340
   69         10.426750000000        -0.000291910771
   70          4.585008000000         0.001330977961
   71          2.117603000000         0.002121908997
   72          0.349225000000        -0.003024429694
   73          0.707057000000         0.003049916964
   74          0.144821000000         0.000635356969
   75          2.211600000000         0.026397680425
   76         10.467400000000         0.313683451968
 S 76
    1   11718110.000000000000        -0.000000809580
    2    1754604.000000000000        -0.000006332074
    3     399281.299999999988        -0.000033322902
    4     113084.600000000006        -0.000140707940
    5      36885.930000000000        -0.000510859599
    6      13312.209999999999        -0.001650488379
    7       5189.988000000000        -0.004789896047
    8       2151.660000000000        -0.012352806870
    9        938.032500000000        -0.027021533718
   10        426.557300000000        -0.045535434282
   11        201.066600000000        -0.048333878551
   12         97.097610000000        -0.023258228808
   13         42.998720000000        -0.002579597378
   14         21.177070000000         0.000199402509
   15         10.426750000000        -0.000095010026
   16          4.585008000000         0.000048979606
   17          2.117603000000        -0.000017507173
   18          0.349225000000        -0.000005291185
   19   11718110.000000000000         0.000000216859
   20    1754604.000000000000         0.000001662587
   21     399281.299999999988         0.000008746654
   22     113084.600000000006         0.000036902205
   23      36885.930000000000         0.000134657506
   24      13312.209999999999         0.000436971257
   25       5189.988000000000         0.001294311996
   26       2151.660000000000         0.003457602841
   27        938.032500000000         0.008272924894
   28        426.557300000000         0.016447022239
   29        201.066600000000         0.024366032944
   30         97.097610000000         0.013138883567
   31         42.998720000000        -0.039983629040
   32         21.177070000000        -0.071662924747
   33         10.426750000000        -0.029213642920
   34          4.585008000000        -0.002075113491
   35          2.117603000000        -0.000044395894
   36          0.349225000000         0.000013891036
   37   11718110.000000000000         0.000001288153
   38    1754604.000000000000         0.000010121200
   39     399281.299999999988         0.000053734370
   40     113084.600000000006         0.000225978788
   41      36885.930000000000         0.000826441969
   42      13312.209999999999         0.002678805553
   43       5189.988000000000         0.007971640981
   44       2151.660000000000         0.021340089716
   45        938.032500000000         0.051817782630
   46        426.557300000000         0.104954817649
   47        201.066600000000         0.164028948467
   48         97.097610000000         0.093560554940
   49         42.998720000000        -0.353511426270
   50         21.177070000000        -0.942383072823
   51         10.426750000000        -0.341729797641
   52          4.585008000000         1.224503052144
   53          2.117603000000         1.108533608789
   54          0.349225000000        -0.019589674217
   55   11718110.000000000000         0.000000017871
   56    1754604.000000000000         0.000000160842
   57     399281.299999999988         0.000000831018
   58     113084.600000000006         0.000003493851
   59      36885.930000000000         0.000012778024
   60      13312.209999999999         0.000041452626
   61       5189.988000000000         0.000123321338
   62       2151.660000000000         0.000330629144
   63        938.032500000000         0.000803505399
   64        426.557300000000         0.001635417328
   65        201.066600000000         0.002569535581
   66         97.097610000000         0.001495153939
   67         42.998720000000        -0.005829727841
   68         21.177070000000        -0.016391810374
   69         10.426750000000        -0.006185126694
   70          4.585008000000         0.028201314016
   71          2.117603000000         0.044959889429
   72          0.349225000000        -0.064082872923
   73          0.707057000000         0.126456974953
   74          0.144821000000         0.021046897841
   75          2.211600000000        -1.498820907338
   76         10.467400000000         1.049391690456
 S 76
    1   11718110.000000000000        -0.000000481541
    2    1754604.000000000000        -0.000003766339
    3     399281.299999999988        -0.000019820573
    4     113084.600000000006        -0.000083693553
    5      36885.930000000000        -0.000303860998
    6      13312.209999999999        -0.000981716006
    7       5189.988000000000        -0.002849046185
    8       2151.660000000000        -0.007347490832
    9        938.032500000000        -0.016072498611
   10        426.557300000000        -0.027084628573
   11        201.066600000000        -0.028749152582
   12         97.097610000000        -0.013834072266
   13         42.998720000000        -0.001534353146
   14         21.177070000000         0.000118605279
   15         10.426750000000        -0.000056512281
   16          4.585008000000         0.000029133233
   17          2.117603000000        -0.000010413325
   18          0.349225000000        -0.000003147215
   19   11718110.000000000000        -0.000000826395
   20    1754604.000000000000        -0.000006335695
   21     399281.299999999988        -0.000033331263
   22     113084.600000000006        -0.000140624873
   23      36885.930000000000        -0.000513145349
   24      13312.209999999999        -0.001665185810
   25       5189.988000000000        -0.004932292305
   26       2151.660000000000        -0.013176040968
   27        938.032500000000        -0.031526002941
   28        426.557300000000        -0.062675399342
   29        201.066600000000        -0.092852725736
   30         97.097610000000        -0.050068928133
   31         42.998720000000         0.152367393976
   32         21.177070000000         0.273089095477
   33         10.426750000000         0.111325728734
   34          4.585008000000         0.007907727297
   35          2.117603000000         0.000169181409
   36          0.349225000000        -0.000052935187
   37   11718110.000000000000         0.000001640469
   38    1754604.000000000000         0.000012889399
   39     399281.299999999988         0.000068430989
   40     113084.600000000006         0.000287785119
   41      36885.930000000000         0.001052477987
   42      13312.209999999999         0.003411472291
   43       5189.988000000000         0.010151924722
   44       2151.660000000000         0.027176711152
   45        938.032500000000         0.065990205750
   46        426.557300000000         0.133660486024
   47        201.066600000000         0.208891687541
   48         97.097610000000         0.119149835387
   49         42.998720000000        -0.450198572195
   50         21.177070000000        -1.200129563907
   51         10.426750000000        -0.435194609119
   52          4.585008000000         1.559410770792
   53          2.117603000000         1.411723103756
   54          0.349225000000        -0.024947548245
   55   11718110.000000000000         0.000000050722
   56    1754604.000000000000         0.000000456502
   57     399281.299999999988         0.000002358593
   58     113084.600000000006         0.000009916236
   59      36885.930000000000         0.000036266543
   60      13312.209999999999         0.000117650693
   61       5189.988000000000         0.000350010178
   62       2151.660000000000         0.000938390450
   63        938.032500000000         0.002280506139
   64        426.557300000000         0.004641635591
   65        201.066600000000         0.007292846662
   66         97.097610000000         0.004243540543
   67         42.998720000000        -0.016545912634
   68         21.177070000000        -0.046523177366
   69         10.426750000000        -0.017554604381
   70          4.585008000000         0.080040868216
   71          2.117603000000         0.127604996800
   72          0.349225000000        -0.181879779911
   73          0.707057000000         0.325472724570
   74          0.144821000000         0.050605206204
   75          2.211600000000        -4.045185322725
   76         10.467400000000         1.646478583091
 S 76
    1   11718110.000000000000        -0.000000700983
    2    1754604.000000000000        -0.000005482689
    3     399281.299999999988        -0.000028852965
    4     113084.600000000006        -0.000121833366
    5      36885.930000000000        -0.000442332852
    6      13312.209999999999        -0.001429091737
    7       5189.988000000000        -0.004147379012
    8       2151.660000000000        -0.010695800378
    9        938.032500000000        -0.023396863047
   10        426.557300000000        -0.039427307523
   11        201.066600000000        -0.041850368256
   12         97.097610000000        -0.020138368154
   13         42.998720000000        -0.002233569981
   14         21.177070000000         0.000172654640
   15         10.426750000000        -0.000082265373
   16          4.585008000000         0.000042409477
   17          2.117603000000        -0.000015158759
   18          0.349225000000        -0.000004581425
   19   11718110.000000000000        -0.000000025743
   20    1754604.000000000000        -0.000000197362
   21     399281.299999999988        -0.000001038297
   22     113084.600000000006        -0.000004380583
   23      36885.930000000000        -0.000015984910
   24      13312.209999999999        -0.000051871942
   25       5189.988000000000        -0.000153645063
   26       2151.660000000000        -0.000410444782
   27        938.032500000000        -0.000982061564
   28        426.557300000000        -0.001952391518
   29        201.066600000000        -0.002892440671
   30         97.097610000000        -0.001559689314
   31         42.998720000000         0.004746372751
   32         21.177070000000         0.008506955507
   33         10.426750000000         0.003467890285
   34          4.585008000000         0.000246332371
   35          2.117603000000         0.000005270143
   36          0.349225000000        -0.000001648976
   37   11718110.000000000000         0.000000454863
   38    1754604.000000000000         0.000003573922
   39     399281.299999999988         0.000018974274
   40     113084.600000000006         0.000079795920
   41      36885.930000000000         0.000291826937
   42      13312.209999999999         0.000945919556
   43       5189.988000000000         0.002814885569
   44       2151.660000000000         0.007535451073
   45        938.032500000000         0.018297503475
   46        426.557300000000         0.037060851375
   47        201.066600000000         0.057920661638
   48         97.097610000000         0.033037395508
   49         42.998720000000        -0.124829281035
   50         21.177070000000        -0.332767182891
   51         10.426750000000        -0.120669041445
   52          4.585008000000         0.432387256153
   53          2.117603000000         0.391437003460
   54          0.349225000000        -0.006917357591
   55   11718110.000000000000         0.000000359320
   56    1754604.000000000000         0.000003233880
   57     399281.299999999988         0.000016708378
   58     113084.600000000006         0.000070247052
   59      36885.930000000000         0.000256913770
   60      13312.209999999999         0.000833442644
   61       5189.988000000000         0.002479487374
   62       2151.660000000000         0.006647598894
   63        938.032500000000         0.016155204999
   64        426.557300000000         0.032881549073
   65        201.066600000000         0.051662843990
   66         97.097610000000         0.030061426378
   67         42.998720000000        -0.117211967100
   68         21.177070000000        -0.329572218562
   69         10.426750000000        -0.124357583457
   70          4.585008000000         0.567013003136
   71          2.117603000000         0.903959365549
   72          0.349225000000        -1.288444297467
   73          0.707057000000         3.364837009515
   74          0.144821000000         0.271133973647
   75          2.211600000000        -4.664172184306
   76         10.467400000000         1.468649763396
 S 76
    1   11718110.000000000000         0.000000789298
    2    1754604.000000000000         0.000006173442
    3     399281.299999999988         0.000032488090
    4     113084.600000000006         0.000137182897
    5      36885.930000000000         0.000498061444
    6      13312.209999999999         0.001609140020
    7       5189.988000000000         0.004669898632
    8       2151.660000000000         0.012043341929
    9        938.032500000000         0.026344584956
   10        426.557300000000         0.044394671651
   11        201.066600000000         0.047123008745
   12         97.097610000000         0.022675559097
   13         42.998720000000         0.002514972798
   14         21.177070000000        -0.000194407038
   15         10.426750000000         0.000092629816
   16          4.585008000000        -0.000047752559
   17          2.117603000000         0.000017068580
   18          0.349225000000         0.000005158629
   19   11718110.000000000000        -0.000000979482
   20    1754604.000000000000        -0.000007509358
   21     399281.299999999988        -0.000039505756
   22     113084.600000000006        -0.000166675109
   23      36885.930000000000        -0.000608203622
   24      13312.209999999999        -0.001973655307
   25       5189.988000000000        -0.005845981167
   26       2151.660000000000        -0.015616853705
   27        938.032500000000        -0.037366078096
   28        426.557300000000        -0.074285784688
   29        201.066600000000        -0.110053348907
   30         97.097610000000        -0.059344011428
   31         42.998720000000         0.180592888775
   32         21.177070000000         0.323677837878
   33         10.426750000000         0.131948407218
   34          4.585008000000         0.009372604459
   35          2.117603000000         0.000200521638
   36          0.349225000000        -0.000062741234
   37   11718110.000000000000         0.000001687865
   38    1754604.000000000000         0.000013261796
   39     399281.299999999988         0.000070408081
   40     113084.600000000006         0.000296099739
   41      36885.930000000000         0.001082885936
   42      13312.209999999999         0.003510035755
   43       5189.988000000000         0.010445231768
   44       2151.660000000000         0.027961894366
   45        938.032500000000         0.067896779416
   46        426.557300000000         0.137522173679
   47        201.066600000000         0.214926937561
   48         97.097610000000         0.122592284701
   49         42.998720000000        -0.463205604565
   50         21.177070000000        -1.234803427954
   51         10.426750000000        -0.447768150480
   52          4.585008000000         1.604464903850
   53          2.117603000000         1.452510279111
   54          0.349225000000        -0.025668327003
   55   11718110.000000000000        -0.000001330351
   56    1754604.000000000000        -0.000011973155
   57     399281.299999999988        -0.000061861302
   58     113084.600000000006        -0.000260083539
   59      36885.930000000000        -0.000951200668
   60      13312.209999999999        -0.003085748180
   61       5189.988000000000        -0.009180084207
   62       2151.660000000000        -0.024612150985
   63        938.032500000000        -0.059813227447
   64        426.557300000000        -0.121741047148
   65        201.066600000000        -0.191277141840
   66         97.097610000000        -0.111299790587
   67         42.998720000000         0.433967012363
   68         21.177070000000         1.220212189808
   69         10.426750000000         0.460423029258
   70          4.585008000000        -2.099315838041
   71          2.117603000000        -3.346830147716
   72          0.349225000000         4.770351835225
   73          0.707057000000        -5.135509587346
   74          0.144821000000        -0.758656729231
   75          2.211600000000         4.244817512685
   76         10.467400000000        -0.848373830942
 S 76
    1   11718110.000000000000         0.000000595200
    2    1754604.000000000000         0.000004655315
    3     399281.299999999988         0.000024498860
    4     113084.600000000006         0.000103447900
    5      36885.930000000000         0.000375581880
    6      13312.209999999999         0.001213432280
    7       5189.988000000000         0.003521511909
    8       2151.660000000000         0.009081732896
    9        938.032500000000         0.019866120654
   10        426.557300000000         0.033477464339
   11        201.066600000000         0.035534869077
   12         97.097610000000         0.017099354333
   13         42.998720000000         0.001896509402
   14         21.177070000000        -0.000146599906
   15         10.426750000000         0.000069850981
   16          4.585008000000        -0.000036009605
   17          2.117603000000         0.000012871202
   18          0.349225000000         0.000003890058
   19   11718110.000000000000        -0.000001108322
   20    1754604.000000000000        -0.000008497134
   21     399281.299999999988        -0.000044702313
   22     113084.600000000006        -0.000188599427
   23      36885.930000000000        -0.000688206265
   24      13312.209999999999        -0.002233268429
   25       5189.988000000000        -0.006614957097
   26       2151.660000000000        -0.017671082798
   27        938.032500000000        -0.042281183674
   28        426.557300000000        -0.084057280473
   29        201.066600000000        -0.124529682967
   30         97.097610000000        -0.067150077690
   31         42.998720000000         0.204347940418
   32         21.177070000000         0.366254175221
   33         10.426750000000         0.149304800644
   34          4.585008000000         0.010605469742
   35          2.117603000000         0.000226898102
   36          0.349225000000        -0.000070994169
   37   11718110.000000000000         0.000002269307
   38    1754604.000000000000         0.000017830269
   39     399281.299999999988         0.000094662517
   40     113084.600000000006         0.000398101270
   41      36885.930000000000         0.001455922477
   42      13312.209999999999         0.004719185816
   43       5189.988000000000         0.014043443728
   44       2151.660000000000         0.037594310854
   45        938.032500000000         0.091286112376
   46        426.557300000000         0.184896319217
   47        201.066600000000         0.288965761611
   48         97.097610000000         0.164823327026
   49         42.998720000000        -0.622772379417
   50         21.177070000000        -1.660173066476
   51         10.426750000000        -0.602016974220
   52          4.585008000000         2.157176890812
   53          2.117603000000         1.952876376570
   54          0.349225000000        -0.034510646948
   55   11718110.000000000000        -0.000001535181
   56    1754604.000000000000        -0.000013816625
   57     399281.299999999988        -0.000071385898
   58     113084.600000000006        -0.000300127808
   59      36885.930000000000        -0.001097654130
   60      13312.209999999999        -0.003560851405
   61       5189.988000000000        -0.010593513741
   62       2151.660000000000        -0.028401608720
   63        938.032500000000        -0.069022487438
   64        426.557300000000        -0.140485144442
   65        201.066600000000        -0.220727499307
   66         97.097610000000        -0.128436279491
   67         42.998720000000         0.500783588143
   68         21.177070000000         1.408084534768
   69         10.426750000000         0.531312957176
   70          4.585008000000        -2.422541087385
   71          2.117603000000        -3.862131366049
   72          0.349225000000         5.504828341075
   73          0.707057000000        -3.654845201275
   74          0.144821000000        -3.106059093900
   75          2.211600000000         3.086564933135
   76         10.467400000000        -0.378436106256
 S 76
    1   11718110.000000000000        -0.000018501163
    2    1754604.000000000000        -0.000144705521
    3     399281.299999999988        -0.000761521064
    4     113084.600000000006        -0.003215568119
    5      36885.930000000000        -0.011674563918
    6      13312.209999999999        -0.037718253921
    7       5189.988000000000        -0.109462458332
    8       2151.660000000000        -0.282296023531
    9        938.032500000000        -0.617517265427
   10        426.557300000000        -1.040611430525
   11        201.066600000000        -1.104563672121
   12         97.097610000000        -0.531515272284
   13         42.998720000000        -0.058950980918
   14         21.177070000000         0.004556902400
   15         10.426750000000        -0.002171243571
   16          4.585008000000         0.001119320331
   17          2.117603000000        -0.000400087639
   18          0.349225000000        -0.000120918312
   19   11718110.000000000000         0.000025904874
   20    1754604.000000000000         0.000198604031
   21     399281.299999999988         0.001044829902
   22     113084.600000000006         0.004408145993
   23      36885.930000000000         0.016085487353
   24      13312.209999999999         0.052198320326
   25       5189.988000000000         0.154611798988
   26       2151.660000000000         0.413027304854
   27        938.032500000000         0.988240705907
   28        426.557300000000         1.964675985246
   29        201.066600000000         2.910639937420
   30         97.097610000000         1.569502894949
   31         42.998720000000        -4.776236976902
   32         21.177070000000        -8.560481358702
   33         10.426750000000        -3.489710286322
   34          4.585008000000        -0.247882296424
   35          2.117603000000        -0.005303303292
   36          0.349225000000         0.001659351071
   37   11718110.000000000000        -0.000009594833
   38    1754604.000000000000        -0.000075387976
   39     399281.299999999988        -0.000400241618
   40     113084.600000000006        -0.001683207902
   41      36885.930000000000        -0.006155770918
   42      13312.209999999999        -0.019953141226
   43       5189.988000000000        -0.059376940632
   44       2151.660000000000        -0.158952120787
   45        938.032500000000        -0.385965877047
   46        426.557300000000        -0.781758234100
   47        201.066600000000        -1.221773177907
   48         97.097610000000        -0.696887821347
   49         42.998720000000         2.633137520760
   50         21.177070000000         7.019360743619
   51         10.426750000000         2.545381804560
   52          4.585008000000        -9.120737524403
   53          2.117603000000        -8.256936611998
   54          0.349225000000         0.145914113001
   55   11718110.000000000000        -0.000000870978
   56    1754604.000000000000        -0.000007838799
   57     399281.299999999988        -0.000040500459
   58     113084.600000000006        -0.000170276125
   59      36885.930000000000        -0.000622748998
   60      13312.209999999999        -0.002020232588
   61       5189.988000000000        -0.006010181061
   62       2151.660000000000        -0.016113521444
   63        938.032500000000        -0.039159589248
   64        426.557300000000        -0.079703597422
   65        201.066600000000        -0.125228726600
   66         97.097610000000        -0.072867729577
   67         42.998720000000         0.284117254271
   68         21.177070000000         0.798870253082
   69         10.426750000000         0.301437950695
   70          4.585008000000        -1.374417489714
   71          2.117603000000        -2.191162380987
   72          0.349225000000         3.123138917746
   73          0.707057000000        -4.766116090668
   74          0.144821000000        -0.868447657187
   75          2.211600000000        18.760129150076
   76         10.467400000000         7.370242714375
 P 37
    1       9366.308999999999         0.000503885760
    2       2219.554000000000         0.004375862560
    3        719.452900000000         0.023736818401
    4        273.464500000000         0.092205020350
    5        114.752300000000         0.254906647817
    6         51.155570000000         0.458339060757
    7         23.682680000000         0.431874518543
    8         10.875480000000         0.139437134977
    9          4.955131000000         0.006098792197
   10          2.217267000000         0.002088785713
   11          0.322154000000         0.000261887210
   12       9366.308999999999        -0.000016183977
   13       2219.554000000000        -0.000141374563
   14        719.452900000000        -0.000774092774
   15        273.464500000000        -0.003091572358
   16        114.752300000000        -0.008940094539
   17         51.155570000000        -0.017248223610
   18         23.682680000000        -0.015169288314
   19         10.875480000000         0.016820458527
   20          4.955131000000         0.051166629997
   21          2.217267000000         0.036822188160
   22          0.322154000000        -0.000449764001
   23       9366.308999999999        -0.000000498358
   24       2219.554000000000        -0.000004384696
   25        719.452900000000        -0.000023878412
   26        273.464500000000        -0.000096403422
   27        114.752300000000        -0.000278176873
   28         51.155570000000        -0.000548985319
   29         23.682680000000        -0.000460851861
   30         10.875480000000         0.000657747167
   31          4.955131000000         0.002142537818
   32          2.217267000000         0.001558560486
   33          0.322154000000        -0.006164862154
   34          0.806410000000         0.010484559082
   35          0.117619000000         0.001987968751
   36          2.691200000000        -0.088569378918
   37         13.832700000000        -0.235377845112
 P 37
    1       9366.308999999999         0.000115579705
    2       2219.554000000000         0.001003721369
    3        719.452900000000         0.005444675545
    4        273.464500000000         0.021149692891
    5        114.752300000000         0.058469672224
    6         51.155570000000         0.105132348958
    7         23.682680000000         0.099061996842
    8         10.875480000000         0.031983644396
    9          4.955131000000         0.001398921463
   10          2.217267000000         0.000479118991
   11          0.322154000000         0.000060070851
   12       9366.308999999999         0.000192768774
   13       2219.554000000000         0.001683924905
   14        719.452900000000         0.009220287387
   15        273.464500000000         0.036823991365
   16        114.752300000000         0.106486255534
   17         51.155570000000         0.205445114574
   18         23.682680000000         0.180682732672
   19         10.875480000000        -0.200349966886
   20          4.955131000000        -0.609450248304
   21          2.217267000000        -0.438592334862
   22          0.322154000000         0.005357178732
   23       9366.308999999999        -0.000001909090
   24       2219.554000000000        -0.000016796719
   25        719.452900000000        -0.000091472473
   26        273.464500000000        -0.000369298399
   27        114.752300000000        -0.001065628916
   28         51.155570000000        -0.002103031151
   29         23.682680000000        -0.001765413003
   30         10.875480000000         0.002519671717
   31          4.955131000000         0.008207548760
   32          2.217267000000         0.005970471598
   33          0.322154000000        -0.023616109040
   34          0.806410000000         0.046332886309
   35          0.117619000000         0.005017555483
   36          2.691200000000         0.557674852772
   37         13.832700000000        -0.699714115905
 P 37
    1       9366.308999999999         0.000176051474
    2       2219.554000000000         0.001528872443
    3        719.452900000000         0.008293351776
    4        273.464500000000         0.032215297618
    5        114.752300000000         0.089061240844
    6         51.155570000000         0.160138018477
    7         23.682680000000         0.150891633621
    8         10.875480000000         0.048717616300
    9          4.955131000000         0.002130842822
   10          2.217267000000         0.000729795982
   11          0.322154000000         0.000091500163
   12       9366.308999999999         0.000051332439
   13       2219.554000000000         0.000448412729
   14        719.452900000000         0.002455272335
   15        273.464500000000         0.009805868675
   16        114.752300000000         0.028356248161
   17         51.155570000000         0.054708024272
   18         23.682680000000         0.048114044206
   19         10.875480000000        -0.053351236286
   20          4.955131000000        -0.162290639260
   21          2.217267000000        -0.116792848304
   22          0.322154000000         0.001426564290
   23       9366.308999999999         0.000001391228
   24       2219.554000000000         0.000012240416
   25        719.452900000000         0.000066659513
   26        273.464500000000         0.000269121960
   27        114.752300000000         0.000776564814
   28         51.155570000000         0.001532559758
   29         23.682680000000         0.001286524416
   30         10.875480000000        -0.001836181777
   31          4.955131000000        -0.005981156739
   32          2.217267000000        -0.004350912493
   33          0.322154000000         0.017209967783
   34          0.806410000000        -0.023471475933
   35          0.117619000000        -0.005855743652
   36          2.691200000000         1.377861824347
   37         13.832700000000        -1.013547379514
 P 37
    1       9366.308999999999         0.000464181884
    2       2219.554000000000         0.004031064749
    3        719.452900000000         0.021866466466
    4        273.464500000000         0.084939689531
    5        114.752300000000         0.234821178315
    6         51.155570000000         0.422224054321
    7         23.682680000000         0.397844796112
    8         10.875480000000         0.128450131122
    9          4.955131000000         0.005618235469
   10          2.217267000000         0.001924199021
   11          0.322154000000         0.000241251705
   12       9366.308999999999        -0.000293767591
   13       2219.554000000000        -0.002566196542
   14        719.452900000000        -0.014051142982
   15        273.464500000000        -0.056117466420
   16        114.752300000000        -0.162278412730
   17         51.155570000000        -0.313085542629
   18         23.682680000000        -0.275349216843
   19         10.875480000000         0.305320855295
   20          4.955131000000         0.928764171836
   21          2.217267000000         0.668387366803
   22          0.322154000000        -0.008164006303
   23       9366.308999999999         0.000036914730
   24       2219.554000000000         0.000324786248
   25        719.452900000000         0.001768738379
   26        273.464500000000         0.007140861361
   27        114.752300000000         0.020605310978
   28         51.155570000000         0.040664822626
   29         23.682680000000         0.034136539817
   30         10.875480000000        -0.048721105911
   31          4.955131000000        -0.158703552432
   32          2.217267000000        -0.115446777111
   33          0.322154000000         0.456647960184
   34          0.806410000000        -1.615252354440
   35          0.117619000000        -0.113638610320
   36          2.691200000000        -0.061486874075
   37         13.832700000000        -1.274055523481
 P 37
    1       9366.308999999999         0.000785015420
    2       2219.554000000000         0.006817258705
    3        719.452900000000         0.036980144978
    4        273.464500000000         0.143648359383
    5        114.752300000000         0.397125033062
    6         51.155570000000         0.714057150785
    7         23.682680000000         0.672827421032
    8         10.875480000000         0.217232376291
    9          4.955131000000         0.009501451114
   10          2.217267000000         0.003254168152
   11          0.322154000000         0.000408000215
   12       9366.308999999999        -0.000703912470
   13       2219.554000000000        -0.006149002826
   14        719.452900000000        -0.033668706389
   15        273.464500000000        -0.134466107323
   16        114.752300000000        -0.388844113150
   17         51.155570000000        -0.750201262853
   18         23.682680000000        -0.659779204324
   19         10.875480000000         0.731595874069
   20          4.955131000000         2.225462245090
   21          2.217267000000         1.601559249400
   22          0.322154000000        -0.019562218641
   23       9366.308999999999         0.000147156543
   24       2219.554000000000         0.001294724946
   25        719.452900000000         0.007050882585
   26        273.464500000000         0.028466264770
   27        114.752300000000         0.082140824244
   28         51.155570000000         0.162105879004
   29         23.682680000000         0.136081591798
   30         10.875480000000        -0.194221373403
   31          4.955131000000        -0.632654397744
   32          2.217267000000        -0.460215982096
   33          0.322154000000         1.820377274508
   34          0.806410000000        -1.110631152265
   35          0.117619000000        -0.341410850998
   36          2.691200000000        -2.125037511320
   37         13.832700000000        -1.588029377547
 P 37
    1       9366.308999999999         0.001549946206
    2       2219.554000000000         0.013460097716
    3        719.452900000000         0.073014152243
    4        273.464500000000         0.283621472757
    5        114.752300000000         0.784089614593
    6         51.155570000000         1.409845135774
    7         23.682680000000         1.328440539688
    8         10.875480000000         0.428906858099
    9          4.955131000000         0.018759807419
   10          2.217267000000         0.006425078351
   11          0.322154000000         0.000805561736
   12       9366.308999999999        -0.001100989645
   13       2219.554000000000        -0.009617656636
   14        719.452900000000        -0.052661230868
   15        273.464500000000        -0.210318467241
   16        114.752300000000        -0.608191160596
   17         51.155570000000        -1.173389955780
   18         23.682680000000        -1.031960794684
   19         10.875480000000         1.144289263202
   20          4.955131000000         3.480845973822
   21          2.217267000000         2.504999164741
   22          0.322154000000        -0.030597270363
   23       9366.308999999999        -0.000032448463
   24       2219.554000000000        -0.000285490769
   25        719.452900000000        -0.001554740948
   26        273.464500000000        -0.006276897527
   27        114.752300000000        -0.018112300323
   28         51.155570000000        -0.035744836891
   29         23.682680000000        -0.030006402806
   30         10.875480000000         0.042826400595
   31          4.955131000000         0.139502209263
   32          2.217267000000         0.101479016773
   33          0.322154000000        -0.401398697917
   34          0.806410000000         1.306423496155
   35          0.117619000000        -0.585386155942
   36          2.691200000000        -6.127917215703
   37         13.832700000000        -3.048517000376
 P 37
    1       9366.308999999999         0.000974945442
    2       2219.554000000000         0.008466655722
    3        719.452900000000         0.045927280987
    4        273.464500000000         0.178403263930
    5        114.752300000000         0.493207178909
    6         51.155570000000         0.886819222156
    7         23.682680000000         0.835614193499
    8         10.875480000000         0.269790515728
    9          4.955131000000         0.011800273237
   10          2.217267000000         0.004041495651
   11          0.322154000000         0.000506713549
   12       9366.308999999999        -0.000530029266
   13       2219.554000000000        -0.004630052162
   14        719.452900000000        -0.025351731200
   15        273.464500000000        -0.101249764959
   16        114.752300000000        -0.292790323495
   17         51.155570000000        -0.564883620476
   18         23.682680000000        -0.496797971569
   19         10.875480000000         0.550874207407
   20          4.955131000000         1.675719880101
   21          2.217267000000         1.205935836162
   22          0.322154000000        -0.014729883083
   23       9366.308999999999        -0.000182163890
   24       2219.554000000000        -0.001602729508
   25        719.452900000000        -0.008728230353
   26        273.464500000000        -0.035238158230
   27        114.752300000000        -0.101681459976
   28         51.155570000000        -0.200669552559
   29         23.682680000000        -0.168454298545
   30         10.875480000000         0.240425062544
   31          4.955131000000         0.783157746653
   32          2.217267000000         0.569697630802
   33          0.322154000000        -2.253430260573
   34          0.806410000000         1.797198519657
   35          0.117619000000         1.640692805104
   36          2.691200000000        -4.392820913066
   37         13.832700000000        -1.959923354502
 D 11
    1        446.161300000000         0.003818733752
    2        133.964800000000         0.033095783151
    3         51.345910000000         0.153336408318
    4         21.916910000000         0.455841627959
    5          9.893725000000         0.863964854927
    6          4.492527000000         1.053019638751
    7          2.002293000000         0.741777882836
    8          0.808409000000        -0.126497649874
    9          0.300600000000         0.032168695171
   10          2.793800000000        -1.211945860400
   11          7.471600000000        -0.832607342060
 D 11
    1        446.161300000000         0.003356302952
    2        133.964800000000         0.029088038575
    3         51.345910000000         0.134768086311
    4         21.916910000000         0.400641338445
    5          9.893725000000         0.759342751116
    6          4.492527000000         0.925503884687
    7          2.002293000000         0.651952049967
    8          0.808409000000        -0.055746492743
    9          0.300600000000         0.007449627322
   10          2.793800000000        -1.788786360468
   11          7.471600000000        -1.486748446301
 D 11
    1        446.161300000000         0.003164667971
    2        133.964800000000         0.027427197529
    3         51.345910000000         0.127073226826
    4         21.916910000000         0.377765901924
    5          9.893725000000         0.715986523902
    6          4.492527000000         0.872660347756
    7          2.002293000000         0.614727514447
    8          0.808409000000         0.690706477602
    9          0.300600000000        -0.147598347615
   10          2.793800000000        -0.537386868396
   11          7.471600000000        -2.021753768232
 D 11
    1        446.161300000000         0.003163116316
    2        133.964800000000         0.027413749811
    3         51.345910000000         0.127010922070
    4         21.916910000000         0.377580681065
    5          9.893725000000         0.715635471469
    6          4.492527000000         0.872232477220
    7          2.002293000000         0.614426109906
    8          0.808409000000        -1.041893507602
    9          0.300600000000        -0.129239400797
   10          2.793800000000         0.418821472282
   11          7.471600000000        -2.302071092311
 D 11
    1        446.161300000000         0.001349421917
    2        133.964800000000         0.011695021973
    3         51.345910000000         0.054184324823
    4         21.916910000000         0.161080275115
    5          9.893725000000         0.305298349218
    6          4.492527000000         0.372104438707
    7          2.002293000000         0.262121267810
    8          0.808409000000        -1.288585628613
    9          0.300600000000         1.415953274222
   10          2.793800000000         0.405175031143
   11          7.471600000000        -1.036222235535
 F 3
    1          0.662200000000        -0.000979045396
    2          3.951800000000         0.553006858757
    3         11.866400000000         0.592897311050
 F 3
    1          0.662200000000        -0.413702225206
    2          3.951800000000        -0.839838023771
    3         11.866400000000         0.881062114140
 F 3
    1          0.662200000000         0.938624827957
    2          3.951800000000        -0.660281254857
    3         11.866400000000         0.510892103282
 G 1
    1          8.899500000000         1.000000000000
 end
  // -----------------------------------------------
  // The basis set
  // -----------------------------------------------
  BAS[ATNO] = new BFNGauss[NSH];
  // Basis function   1 L = s
  InitBFNGauss(BAS[ATNO][  0]);
  BAS[ATNO][  0].l  = 0;
  BAS[ATNO][  0].ng = 76;
  BAS[ATNO][  0].a[  0] =  11718110.000000000000;     BAS[ATNO][  0].d[  0] =         0.000005578405;
  BAS[ATNO][  0].a[  1] =   1754604.000000000000;     BAS[ATNO][  0].d[  1] =         0.000043631096;
  BAS[ATNO][  0].a[  2] =    399281.299999999988;     BAS[ATNO][  0].d[  2] =         0.000229611132;
[...]
  BAS[ATNO][ 12].a[ 28] =        23.682680000000;     BAS[ATNO][ 12].d[ 28] =         0.136081591798;
  BAS[ATNO][ 12].a[ 29] =        10.875480000000;     BAS[ATNO][ 12].d[ 29] =        -0.194221373403;
  BAS[ATNO][ 12].a[ 30] =         4.955131000000;     BAS[ATNO][ 12].d[ 30] =        -0.632654397744;
  BAS[ATNO][ 12].a[ 31] =         2.217267000000;     BAS[ATNO][ 12].d[ 31] =        -0.460215982096;
  BAS[ATNO][ 12].a[ 32] =         0.322154000000;     BAS[ATNO][ 12].d[ 32] =         1.820377274508;
  BAS[ATNO][ 12].a[ 33] =         0.806410000000;     BAS[ATNO][ 12].d[ 33] =        -1.110631152265;
  BAS[ATNO][ 12].a[ 34] =         0.117619000000;     BAS[ATNO][ 12].d[ 34] =        -0.341410850998;
  BAS[ATNO][ 12].a[ 35] =         2.691200000000;     BAS[ATNO][ 12].d[ 35] =        -2.125037511320;
  BAS[ATNO][ 12].a[ 36] =        13.832700000000;     BAS[ATNO][ 12].d[ 36] =        -1.588029377547;

  // Basis function  14 L = p
  InitBFNGauss(BAS[ATNO][ 13]);
  BAS[ATNO][ 13].l  = 1;
  BAS[ATNO][ 13].ng = 37;
  BAS[ATNO][ 13].a[  0] =      9366.308999999999;     BAS[ATNO][ 13].d[  0] =        -0.001549946206;
  BAS[ATNO][ 13].a[  1] =      2219.554000000000;     BAS[ATNO][ 13].d[  1] =        -0.013460097716;
  BAS[ATNO][ 13].a[  2] =       719.452900000000;     BAS[ATNO][ 13].d[  2] =        -0.073014152243;
  BAS[ATNO][ 13].a[  3] =       273.464500000000;     BAS[ATNO][ 13].d[  3] =        -0.283621472757;
  BAS[ATNO][ 13].a[  4] =       114.752300000000;     BAS[ATNO][ 13].d[  4] =        -0.784089614593;
  BAS[ATNO][ 13].a[  5] =        51.155570000000;     BAS[ATNO][ 13].d[  5] =        -1.409845135774;
  BAS[ATNO][ 13].a[  6] =        23.682680000000;     BAS[ATNO][ 13].d[  6] =        -1.328440539688;
  BAS[ATNO][ 13].a[  7] =        10.875480000000;     BAS[ATNO][ 13].d[  7] =        -0.428906858099;
  BAS[ATNO][ 13].a[  8] =         4.955131000000;     BAS[ATNO][ 13].d[  8] =        -0.018759807419;
  BAS[ATNO][ 13].a[  9] =         2.217267000000;     BAS[ATNO][ 13].d[  9] =        -0.006425078351;
  BAS[ATNO][ 13].a[ 10] =         0.322154000000;     BAS[ATNO][ 13].d[ 10] =        -0.000805561736;
  BAS[ATNO][ 13].a[ 11] =      9366.308999999999;     BAS[ATNO][ 13].d[ 11] =         0.001100989645;
  BAS[ATNO][ 13].a[ 12] =      2219.554000000000;     BAS[ATNO][ 13].d[ 12] =         0.009617656636;
  BAS[ATNO][ 13].a[ 13] =       719.452900000000;     BAS[ATNO][ 13].d[ 13] =         0.052661230868;
  BAS[ATNO][ 13].a[ 14] =       273.464500000000;     BAS[ATNO][ 13].d[ 14] =         0.210318467241;
  BAS[ATNO][ 13].a[ 15] =       114.752300000000;     BAS[ATNO][ 13].d[ 15] =         0.608191160596;
  BAS[ATNO][ 13].a[ 16] =        51.155570000000;     BAS[ATNO][ 13].d[ 16] =         1.173389955780;
  BAS[ATNO][ 13].a[ 17] =        23.682680000000;     BAS[ATNO][ 13].d[ 17] =         1.031960794684;
  BAS[ATNO][ 13].a[ 18] =        10.875480000000;     BAS[ATNO][ 13].d[ 18] =        -1.144289263202;
  BAS[ATNO][ 13].a[ 19] =         4.955131000000;     BAS[ATNO][ 13].d[ 19] =        -3.480845973822;
  BAS[ATNO][ 13].a[ 20] =         2.217267000000;     BAS[ATNO][ 13].d[ 20] =        -2.504999164741;
  BAS[ATNO][ 13].a[ 21] =         0.322154000000;     BAS[ATNO][ 13].d[ 21] =         0.030597270363;
  BAS[ATNO][ 13].a[ 22] =      9366.308999999999;     BAS[ATNO][ 13].d[ 22] =         0.000032448463;
  BAS[ATNO][ 13].a[ 23] =      2219.554000000000;     BAS[ATNO][ 13].d[ 23] =         0.000285490769;
  BAS[ATNO][ 13].a[ 24] =       719.452900000000;     BAS[ATNO][ 13].d[ 24] =         0.001554740948;
  BAS[ATNO][ 13].a[ 25] =       273.464500000000;     BAS[ATNO][ 13].d[ 25] =         0.006276897527;
  BAS[ATNO][ 13].a[ 26] =       114.752300000000;     BAS[ATNO][ 13].d[ 26] =         0.018112300323;
  BAS[ATNO][ 13].a[ 27] =        51.155570000000;     BAS[ATNO][ 13].d[ 27] =         0.035744836891;
  BAS[ATNO][ 13].a[ 28] =        23.682680000000;     BAS[ATNO][ 13].d[ 28] =         0.030006402806;
  BAS[ATNO][ 13].a[ 29] =        10.875480000000;     BAS[ATNO][ 13].d[ 29] =        -0.042826400595;
  BAS[ATNO][ 13].a[ 30] =         4.955131000000;     BAS[ATNO][ 13].d[ 30] =        -0.139502209263;
  BAS[ATNO][ 13].a[ 31] =         2.217267000000;     BAS[ATNO][ 13].d[ 31] =        -0.101479016773;
  BAS[ATNO][ 13].a[ 32] =         0.322154000000;     BAS[ATNO][ 13].d[ 32] =         0.401398697917;
  BAS[ATNO][ 13].a[ 33] =         0.806410000000;     BAS[ATNO][ 13].d[ 33] =        -1.306423496155;
  BAS[ATNO][ 13].a[ 34] =         0.117619000000;     BAS[ATNO][ 13].d[ 34] =         0.585386155942;
  BAS[ATNO][ 13].a[ 35] =         2.691200000000;     BAS[ATNO][ 13].d[ 35] =         6.127917215703;
  BAS[ATNO][ 13].a[ 36] =        13.832700000000;     BAS[ATNO][ 13].d[ 36] =         3.048517000376;

  // Basis function  15 L = p
  InitBFNGauss(BAS[ATNO][ 14]);
  BAS[ATNO][ 14].l  = 1;
  BAS[ATNO][ 14].ng = 37;
  BAS[ATNO][ 14].a[  0] =      9366.308999999999;     BAS[ATNO][ 14].d[  0] =        -0.000974945442;
  BAS[ATNO][ 14].a[  1] =      2219.554000000000;     BAS[ATNO][ 14].d[  1] =        -0.008466655722;
  BAS[ATNO][ 14].a[  2] =       719.452900000000;     BAS[ATNO][ 14].d[  2] =        -0.045927280987;
  BAS[ATNO][ 14].a[  3] =       273.464500000000;     BAS[ATNO][ 14].d[  3] =        -0.178403263930;
  BAS[ATNO][ 14].a[  4] =       114.752300000000;     BAS[ATNO][ 14].d[  4] =        -0.493207178909;
  BAS[ATNO][ 14].a[  5] =        51.155570000000;     BAS[ATNO][ 14].d[  5] =        -0.886819222156;
  BAS[ATNO][ 14].a[  6] =        23.682680000000;     BAS[ATNO][ 14].d[  6] =        -0.835614193499;
  BAS[ATNO][ 14].a[  7] =        10.875480000000;     BAS[ATNO][ 14].d[  7] =        -0.269790515728;
  BAS[ATNO][ 14].a[  8] =         4.955131000000;     BAS[ATNO][ 14].d[  8] =        -0.011800273237;
  BAS[ATNO][ 14].a[  9] =         2.217267000000;     BAS[ATNO][ 14].d[  9] =        -0.004041495651;
  BAS[ATNO][ 14].a[ 10] =         0.322154000000;     BAS[ATNO][ 14].d[ 10] =        -0.000506713549;
  BAS[ATNO][ 14].a[ 11] =      9366.308999999999;     BAS[ATNO][ 14].d[ 11] =         0.000530029266;
  BAS[ATNO][ 14].a[ 12] =      2219.554000000000;     BAS[ATNO][ 14].d[ 12] =         0.004630052162;
  BAS[ATNO][ 14].a[ 13] =       719.452900000000;     BAS[ATNO][ 14].d[ 13] =         0.025351731200;
  BAS[ATNO][ 14].a[ 14] =       273.464500000000;     BAS[ATNO][ 14].d[ 14] =         0.101249764959;
  BAS[ATNO][ 14].a[ 15] =       114.752300000000;     BAS[ATNO][ 14].d[ 15] =         0.292790323495;
  BAS[ATNO][ 14].a[ 16] =        51.155570000000;     BAS[ATNO][ 14].d[ 16] =         0.564883620476;
  BAS[ATNO][ 14].a[ 17] =        23.682680000000;     BAS[ATNO][ 14].d[ 17] =         0.496797971569;
  BAS[ATNO][ 14].a[ 18] =        10.875480000000;     BAS[ATNO][ 14].d[ 18] =        -0.550874207407;
  BAS[ATNO][ 14].a[ 19] =         4.955131000000;     BAS[ATNO][ 14].d[ 19] =        -1.675719880101;
  BAS[ATNO][ 14].a[ 20] =         2.217267000000;     BAS[ATNO][ 14].d[ 20] =        -1.205935836162;
  BAS[ATNO][ 14].a[ 21] =         0.322154000000;     BAS[ATNO][ 14].d[ 21] =         0.014729883083;
  BAS[ATNO][ 14].a[ 22] =      9366.308999999999;     BAS[ATNO][ 14].d[ 22] =         0.000182163890;
  BAS[ATNO][ 14].a[ 23] =      2219.554000000000;     BAS[ATNO][ 14].d[ 23] =         0.001602729508;
  BAS[ATNO][ 14].a[ 24] =       719.452900000000;     BAS[ATNO][ 14].d[ 24] =         0.008728230353;
  BAS[ATNO][ 14].a[ 25] =       273.464500000000;     BAS[ATNO][ 14].d[ 25] =         0.035238158230;
  BAS[ATNO][ 14].a[ 26] =       114.752300000000;     BAS[ATNO][ 14].d[ 26] =         0.101681459976;
  BAS[ATNO][ 14].a[ 27] =        51.155570000000;     BAS[ATNO][ 14].d[ 27] =         0.200669552559;
  BAS[ATNO][ 14].a[ 28] =        23.682680000000;     BAS[ATNO][ 14].d[ 28] =         0.168454298545;
  BAS[ATNO][ 14].a[ 29] =        10.875480000000;     BAS[ATNO][ 14].d[ 29] =        -0.240425062544;
  BAS[ATNO][ 14].a[ 30] =         4.955131000000;     BAS[ATNO][ 14].d[ 30] =        -0.783157746653;
  BAS[ATNO][ 14].a[ 31] =         2.217267000000;     BAS[ATNO][ 14].d[ 31] =        -0.569697630802;
  BAS[ATNO][ 14].a[ 32] =         0.322154000000;     BAS[ATNO][ 14].d[ 32] =         2.253430260573;
  BAS[ATNO][ 14].a[ 33] =         0.806410000000;     BAS[ATNO][ 14].d[ 33] =        -1.797198519657;
  BAS[ATNO][ 14].a[ 34] =         0.117619000000;     BAS[ATNO][ 14].d[ 34] =        -1.640692805104;
  BAS[ATNO][ 14].a[ 35] =         2.691200000000;     BAS[ATNO][ 14].d[ 35] =         4.392820913066;
  BAS[ATNO][ 14].a[ 36] =        13.832700000000;     BAS[ATNO][ 14].d[ 36] =         1.959923354502;

  // Basis function  16 L = d
  InitBFNGauss(BAS[ATNO][ 15]);
  BAS[ATNO][ 15].l  = 2;
  BAS[ATNO][ 15].ng = 11;
  BAS[ATNO][ 15].a[  0] =       446.161300000000;     BAS[ATNO][ 15].d[  0] =        -0.003818733752;
  BAS[ATNO][ 15].a[  1] =       133.964800000000;     BAS[ATNO][ 15].d[  1] =        -0.033095783151;
  BAS[ATNO][ 15].a[  2] =        51.345910000000;     BAS[ATNO][ 15].d[  2] =        -0.153336408318;
  BAS[ATNO][ 15].a[  3] =        21.916910000000;     BAS[ATNO][ 15].d[  3] =        -0.455841627959;
  BAS[ATNO][ 15].a[  4] =         9.893725000000;     BAS[ATNO][ 15].d[  4] =        -0.863964854927;
  BAS[ATNO][ 15].a[  5] =         4.492527000000;     BAS[ATNO][ 15].d[  5] =        -1.053019638751;
  BAS[ATNO][ 15].a[  6] =         2.002293000000;     BAS[ATNO][ 15].d[  6] =        -0.741777882836;
  BAS[ATNO][ 15].a[  7] =         0.808409000000;     BAS[ATNO][ 15].d[  7] =         0.126497649874;
  BAS[ATNO][ 15].a[  8] =         0.300600000000;     BAS[ATNO][ 15].d[  8] =        -0.032168695171;
  BAS[ATNO][ 15].a[  9] =         2.793800000000;     BAS[ATNO][ 15].d[  9] =         1.211945860400;
  BAS[ATNO][ 15].a[ 10] =         7.471600000000;     BAS[ATNO][ 15].d[ 10] =         0.832607342060;

  // Basis function  17 L = d
  InitBFNGauss(BAS[ATNO][ 16]);
  BAS[ATNO][ 16].l  = 2;
  BAS[ATNO][ 16].ng = 11;
  BAS[ATNO][ 16].a[  0] =       446.161300000000;     BAS[ATNO][ 16].d[  0] =        -0.003356302952;
  BAS[ATNO][ 16].a[  1] =       133.964800000000;     BAS[ATNO][ 16].d[  1] =        -0.029088038575;
  BAS[ATNO][ 16].a[  2] =        51.345910000000;     BAS[ATNO][ 16].d[  2] =        -0.134768086311;
  BAS[ATNO][ 16].a[  3] =        21.916910000000;     BAS[ATNO][ 16].d[  3] =        -0.400641338445;
  BAS[ATNO][ 16].a[  4] =         9.893725000000;     BAS[ATNO][ 16].d[  4] =        -0.759342751116;
  BAS[ATNO][ 16].a[  5] =         4.492527000000;     BAS[ATNO][ 16].d[  5] =        -0.925503884687;
  BAS[ATNO][ 16].a[  6] =         2.002293000000;     BAS[ATNO][ 16].d[  6] =        -0.651952049967;
  BAS[ATNO][ 16].a[  7] =         0.808409000000;     BAS[ATNO][ 16].d[  7] =         0.055746492743;
  BAS[ATNO][ 16].a[  8] =         0.300600000000;     BAS[ATNO][ 16].d[  8] =        -0.007449627322;
  BAS[ATNO][ 16].a[  9] =         2.793800000000;     BAS[ATNO][ 16].d[  9] =         1.788786360468;
  BAS[ATNO][ 16].a[ 10] =         7.471600000000;     BAS[ATNO][ 16].d[ 10] =         1.486748446301;

  // Basis function  18 L = d
  InitBFNGauss(BAS[ATNO][ 17]);
  BAS[ATNO][ 17].l  = 2;
  BAS[ATNO][ 17].ng = 11;
  BAS[ATNO][ 17].a[  0] =       446.161300000000;     BAS[ATNO][ 17].d[  0] =        -0.003164667971;
  BAS[ATNO][ 17].a[  1] =       133.964800000000;     BAS[ATNO][ 17].d[  1] =        -0.027427197529;
  BAS[ATNO][ 17].a[  2] =        51.345910000000;     BAS[ATNO][ 17].d[  2] =        -0.127073226826;
  BAS[ATNO][ 17].a[  3] =        21.916910000000;     BAS[ATNO][ 17].d[  3] =        -0.377765901924;
  BAS[ATNO][ 17].a[  4] =         9.893725000000;     BAS[ATNO][ 17].d[  4] =        -0.715986523902;
  BAS[ATNO][ 17].a[  5] =         4.492527000000;     BAS[ATNO][ 17].d[  5] =        -0.872660347756;
  BAS[ATNO][ 17].a[  6] =         2.002293000000;     BAS[ATNO][ 17].d[  6] =        -0.614727514447;
  BAS[ATNO][ 17].a[  7] =         0.808409000000;     BAS[ATNO][ 17].d[  7] =        -0.690706477602;
  BAS[ATNO][ 17].a[  8] =         0.300600000000;     BAS[ATNO][ 17].d[  8] =         0.147598347615;
  BAS[ATNO][ 17].a[  9] =         2.793800000000;     BAS[ATNO][ 17].d[  9] =         0.537386868396;
  BAS[ATNO][ 17].a[ 10] =         7.471600000000;     BAS[ATNO][ 17].d[ 10] =         2.021753768232;

  // Basis function  19 L = d
  InitBFNGauss(BAS[ATNO][ 18]);
  BAS[ATNO][ 18].l  = 2;
  BAS[ATNO][ 18].ng = 11;
  BAS[ATNO][ 18].a[  0] =       446.161300000000;     BAS[ATNO][ 18].d[  0] =        -0.003163116316;
  BAS[ATNO][ 18].a[  1] =       133.964800000000;     BAS[ATNO][ 18].d[  1] =        -0.027413749811;
  BAS[ATNO][ 18].a[  2] =        51.345910000000;     BAS[ATNO][ 18].d[  2] =        -0.127010922070;
  BAS[ATNO][ 18].a[  3] =        21.916910000000;     BAS[ATNO][ 18].d[  3] =        -0.377580681065;
  BAS[ATNO][ 18].a[  4] =         9.893725000000;     BAS[ATNO][ 18].d[  4] =        -0.715635471469;
  BAS[ATNO][ 18].a[  5] =         4.492527000000;     BAS[ATNO][ 18].d[  5] =        -0.872232477220;
  BAS[ATNO][ 18].a[  6] =         2.002293000000;     BAS[ATNO][ 18].d[  6] =        -0.614426109906;
  BAS[ATNO][ 18].a[  7] =         0.808409000000;     BAS[ATNO][ 18].d[  7] =         1.041893507602;
  BAS[ATNO][ 18].a[  8] =         0.300600000000;     BAS[ATNO][ 18].d[  8] =         0.129239400797;
  BAS[ATNO][ 18].a[  9] =         2.793800000000;     BAS[ATNO][ 18].d[  9] =        -0.418821472282;
  BAS[ATNO][ 18].a[ 10] =         7.471600000000;     BAS[ATNO][ 18].d[ 10] =         2.302071092311;

  // Basis function  20 L = d
  InitBFNGauss(BAS[ATNO][ 19]);
  BAS[ATNO][ 19].l  = 2;
  BAS[ATNO][ 19].ng = 11;
  BAS[ATNO][ 19].a[  0] =       446.161300000000;     BAS[ATNO][ 19].d[  0] =         0.001349421917;
  BAS[ATNO][ 19].a[  1] =       133.964800000000;     BAS[ATNO][ 19].d[  1] =         0.011695021973;
  BAS[ATNO][ 19].a[  2] =        51.345910000000;     BAS[ATNO][ 19].d[  2] =         0.054184324823;
  BAS[ATNO][ 19].a[  3] =        21.916910000000;     BAS[ATNO][ 19].d[  3] =         0.161080275115;
  BAS[ATNO][ 19].a[  4] =         9.893725000000;     BAS[ATNO][ 19].d[  4] =         0.305298349218;
  BAS[ATNO][ 19].a[  5] =         4.492527000000;     BAS[ATNO][ 19].d[  5] =         0.372104438707;
  BAS[ATNO][ 19].a[  6] =         2.002293000000;     BAS[ATNO][ 19].d[  6] =         0.262121267810;
  BAS[ATNO][ 19].a[  7] =         0.808409000000;     BAS[ATNO][ 19].d[  7] =        -1.288585628613;
  BAS[ATNO][ 19].a[  8] =         0.300600000000;     BAS[ATNO][ 19].d[  8] =         1.415953274222;
  BAS[ATNO][ 19].a[  9] =         2.793800000000;     BAS[ATNO][ 19].d[  9] =         0.405175031143;
  BAS[ATNO][ 19].a[ 10] =         7.471600000000;     BAS[ATNO][ 19].d[ 10] =        -1.036222235535;

  // Basis function  21 L = f
  InitBFNGauss(BAS[ATNO][ 20]);
  BAS[ATNO][ 20].l  = 3;
  BAS[ATNO][ 20].ng = 3;
  BAS[ATNO][ 20].a[  0] =         0.662200000000;     BAS[ATNO][ 20].d[  0] =        -0.000979045396;
  BAS[ATNO][ 20].a[  1] =         3.951800000000;     BAS[ATNO][ 20].d[  1] =         0.553006858757;
  BAS[ATNO][ 20].a[  2] =        11.866400000000;     BAS[ATNO][ 20].d[  2] =         0.592897311050;

  // Basis function  22 L = f
  InitBFNGauss(BAS[ATNO][ 21]);
  BAS[ATNO][ 21].l  = 3;
  BAS[ATNO][ 21].ng = 3;
  BAS[ATNO][ 21].a[  0] =         0.662200000000;     BAS[ATNO][ 21].d[  0] =        -0.413702225206;
  BAS[ATNO][ 21].a[  1] =         3.951800000000;     BAS[ATNO][ 21].d[  1] =        -0.839838023771;
  BAS[ATNO][ 21].a[  2] =        11.866400000000;     BAS[ATNO][ 21].d[  2] =         0.881062114140;

  // Basis function  23 L = f
  InitBFNGauss(BAS[ATNO][ 22]);
  BAS[ATNO][ 22].l  = 3;
  BAS[ATNO][ 22].ng = 3;
  BAS[ATNO][ 22].a[  0] =         0.662200000000;     BAS[ATNO][ 22].d[  0] =         0.938624827957;
  BAS[ATNO][ 22].a[  1] =         3.951800000000;     BAS[ATNO][ 22].d[  1] =        -0.660281254857;
  BAS[ATNO][ 22].a[  2] =        11.866400000000;     BAS[ATNO][ 22].d[  2] =         0.510892103282;

  // Basis function  24 L = g
  InitBFNGauss(BAS[ATNO][ 23]);
  BAS[ATNO][ 23].l  = 4;
  BAS[ATNO][ 23].ng = 1;
  BAS[ATNO][ 23].a[  0] =         8.899500000000;     BAS[ATNO][ 23].d[  0] =         1.000000000000;

-------
TIMINGS
-------

Total SCF time: 0 days 0 hours 0 min 4 sec 

Total time                  ....       4.998 sec
Sum of individual times     ....       4.702 sec  ( 94.1%)

Fock matrix formation       ....       3.964 sec  ( 79.3%)
  XC integration            ....       0.039 sec  (  1.0% of F)
    Basis function eval.    ....       0.010 sec  ( 25.8% of XC)
    Density eval.           ....       0.002 sec  (  5.8% of XC)
    XC-Functional eval.     ....       0.002 sec  (  4.1% of XC)
    XC-Potential eval.      ....       0.004 sec  ( 10.6% of XC)
Diagonalization             ....       0.001 sec  (  0.0%)
Density matrix formation    ....       0.001 sec  (  0.0%)
Population analysis         ....       0.001 sec  (  0.0%)
Initial guess               ....       0.075 sec  (  1.5%)
Orbital Transformation      ....       0.000 sec  (  0.0%)
Orbital Orthonormalization  ....       0.000 sec  (  0.0%)
DIIS solution               ....       0.000 sec  (  0.0%)
SOSCF solution              ....       0.001 sec  (  0.0%)
Grid generation             ....       0.658 sec  ( 13.2%)

-------------------------   --------------------
FINAL SINGLE POINT ENERGY     -1271.399156624610
-------------------------   --------------------


                            ***************************************
                            *     ORCA property calculations      *
                            ***************************************

                                    ---------------------
                                    Active property flags
                                    ---------------------
   (+) Dipole Moment


------------------------------------------------------------------------------
                       ORCA ELECTRIC PROPERTIES CALCULATION
------------------------------------------------------------------------------

Dipole Moment Calculation                       ... on
Quadrupole Moment Calculation                   ... off
Polarizability Calculation                      ... off
GBWName                                         ... Kr_cc-pcvtz_1096.287912_.gbw
Electron density file                           ... Kr_cc-pcvtz_1096.287912_.scfp
The origin for moment calculation is the CENTER OF MASS  = ( 0.000000,  0.000000  0.000000)

-------------
DIPOLE MOMENT
-------------
                                X             Y             Z
Electronic contribution:     -0.00000      -0.00000      -0.00000
Nuclear contribution   :      0.00000       0.00000       0.00000
                        -----------------------------------------
Total Dipole Moment    :     -0.00000      -0.00000      -0.00000
                        -----------------------------------------
Magnitude (a.u.)       :      0.00000
Magnitude (Debye)      :      0.00000



--------------------
Rotational spectrum 
--------------------
 
Rotational constants in cm-1:     0.000000     0.000000     0.000000 
Rotational constants in MHz :     0.000000     0.000000     0.000000 

 Dipole components along the rotational axes: 
x,y,z [a.u.] :    -0.000000    -0.000000    -0.000000 
x,y,z [Debye]:    -0.000000    -0.000000    -0.000000 

 

Timings for individual modules:

Sum of individual times         ...        7.066 sec (=   0.118 min)
GTO integral calculation        ...        1.264 sec (=   0.021 min)  17.9 %
Relativistic integrals          ...        0.516 sec (=   0.009 min)   7.3 %
SCF iterations                  ...        5.286 sec (=   0.088 min)  74.8 %
                             ****ORCA TERMINATED NORMALLY****
TOTAL RUN TIME: 0 days 0 hours 0 minutes 7 seconds 438 msec
