
                                 *****************
                                 * O   R   C   A *
                                 *****************

           --- An Ab Initio, DFT and Semiempirical electronic structure package ---

                  #######################################################
                  #                        -***-                        #
                  #          Department of theory and spectroscopy      #
                  #               Directorship: Frank Neese             #
                  #        Max Planck Institute fuer Kohlenforschung    #
                  #                Kaiser Wilhelm Platz 1               #
                  #                 D-45470 Muelheim/Ruhr               #
                  #                      Germany                        #
                  #                                                     #
                  #                  All rights reserved                #
                  #                        -***-                        #
                  #######################################################


                         Program Version 4.2.1 -  RELEASE  -


 With contributions from (in alphabetic order):
   Daniel Aravena         : Magnetic Suceptibility
   Michael Atanasov       : Ab Initio Ligand Field Theory (pilot matlab implementation)
   Alexander A. Auer      : GIAO ZORA, VPT2
   Ute Becker             : Parallelization
   Giovanni Bistoni       : ED, misc. LED, open-shell LED, HFLD
   Martin Brehm           : Molecular dynamics
   Dmytro Bykov           : SCF Hessian
   Vijay G. Chilkuri      : MRCI spin determinant printing, contributions to CSF-ICE
   Dipayan Datta          : RHF DLPNO-CCSD density
   Achintya Kumar Dutta   : EOM-CC, STEOM-CC
   Dmitry Ganyushin       : Spin-Orbit,Spin-Spin,Magnetic field MRCI
   Miquel Garcia          : C-PCM Hessian, Gaussian charge scheme
   Yang Guo               : DLPNO-NEVPT2, CIM, IAO-localization
   Andreas Hansen         : Spin unrestricted coupled pair/coupled cluster methods
   Benjamin Helmich-Paris : CASSCF linear response (MC-RPA)
   Lee Huntington         : MR-EOM, pCC
   Robert Izsak           : Overlap fitted RIJCOSX, COSX-SCS-MP3, EOM
   Christian Kollmar      : KDIIS, OOCD, Brueckner-CCSD(T), CCSD density
   Simone Kossmann        : Meta GGA functionals, TD-DFT gradient, OOMP2, MP2 Hessian
   Martin Krupicka        : AUTO-CI
   Lucas Lang             : DCDCAS
   Dagmar Lenk            : GEPOL surface, SMD
   Dimitrios Liakos       : Extrapolation schemes; Compound Job, initial MDCI parallelization
   Dimitrios Manganas     : Further ROCIS development; embedding schemes
   Dimitrios Pantazis     : SARC Basis sets
   Taras Petrenko         : DFT Hessian,TD-DFT gradient, ASA, ECA, R-Raman, ABS, FL, XAS/XES, NRVS
   Peter Pinski           : DLPNO-MP2, DLPNO-MP2 Gradient
   Christoph Reimann      : Effective Core Potentials
   Marius Retegan         : Local ZFS, SOC
   Christoph Riplinger    : Optimizer, TS searches, QM/MM, DLPNO-CCSD(T), (RO)-DLPNO pert. Triples
   Tobias Risthaus        : Range-separated hybrids, TD-DFT gradient, RPA, STAB
   Michael Roemelt        : Original ROCIS implementation
   Masaaki Saitow         : Open-shell DLPNO-CCSD energy and density
   Barbara Sandhoefer     : DKH picture change effects
   Avijit Sen             : IP-ROCIS
   Kantharuban Sivalingam : CASSCF convergence, NEVPT2, FIC-MRCI
   Bernardo de Souza      : ESD, SOC TD-DFT
   Georgi Stoychev        : AutoAux, RI-MP2 NMR
   Willem Van den Heuvel  : Paramagnetic NMR
   Boris Wezisla          : Elementary symmetry handling
   Frank Wennmohs         : Technical directorship


 We gratefully acknowledge several colleagues who have allowed us to
 interface, adapt or use parts of their codes:
   Stefan Grimme, W. Hujo, H. Kruse,             : VdW corrections, initial TS optimization,
                  C. Bannwarth                     DFT functionals, gCP, sTDA/sTD-DF
   Ed Valeev, F. Pavosevic, A. Kumar             : LibInt (2-el integral package), F12 methods
   Garnet Chan, S. Sharma, J. Yang, R. Olivares  : DMRG
   Ulf Ekstrom                                   : XCFun DFT Library
   Mihaly Kallay                                 : mrcc  (arbitrary order and MRCC methods)
   Andreas Klamt, Michael Diedenhofen            : otool_cosmo (COSMO solvation model)
   Jiri Pittner, Ondrej Demel                    : Mk-CCSD
   Frank Weinhold                                : gennbo (NPA and NBO analysis)
   Christopher J. Cramer and Donald G. Truhlar   : smd solvation model
   Lars Goerigk                                  : TD-DFT with DH, B97 family of functionals
   V. Asgeirsson, H. Jonsson                     : NEB implementation
   FAccTs GmbH                                   : IRC, NEB, NEB-TS, Multilevel, MM, QM/MM, CI optimization
   S Lehtola, MJT Oliveira, MAL Marques          : LibXC Library


 Your calculation uses the libint2 library for the computation of 2-el integrals
 For citations please refer to: http://libint.valeyev.net

 Your ORCA version has been built with support for libXC version: 4.2.3
 For citations please refer to: https://tddft.org/programs/libxc/

 This ORCA versions uses:
   CBLAS   interface :  Fast vector & matrix operations
   LAPACKE interface :  Fast linear algebra routines
   SCALAPACK package :  Parallel linear algebra routines


----- Orbital basis set information -----
Your calculation utilizes the basis: cc-pCVTZ 
             H : cc-pVTZ. Obtained from the ccRepo (grant-hill.group.shef.ac.uk/ccrepo) Feb. 2017
                 T. H. Dunning, Jr., J. Chem. Phys. 90, 1007 (1989)
            He : cc-pVTZ. Obtained from the ccRepo (grant-hill.group.shef.ac.uk/ccrepo) Feb. 2017
                 D. E. Woon, T. H. Dunning, Jr., J. Chem. Phys. 100, 2975 (1994)
  Li-Be, Na-Mg : Obtained from the ccRepo (grant-hill.group.shef.ac.uk/ccrepo) Feb. 2017
                 B. P. Prascher, D. E. Woon, K. A. Peterson, T. H. Dunning, Jr., A. K. Wilson, Theor. Chem. Acc. 128, 69 (2011)
          B-Ne : Obtained from the ccRepo (grant-hill.group.shef.ac.uk/ccrepo) Feb. 2017
                 D. E. Woon, T. H. Dunning, Jr., J. Chem. Phys. 103, 4572 (1995)
                  K. A. Peterson, T. H. Dunning, Jr., J. Chem. Phys. 117, 10548 (2002)
         Al-Ar : Obtained from the EMSL Basis Set Exchange (bse.pnl.gov) Feb. 2017
                 K. A. Peterson, T. H. Dunning, Jr., J. Chem. Phys. 117, 10548 (2002)
            Ca : Obtained from the Peterson Research Group Website (tyr0.chem.wsu.edu/~kipeters) Feb. 2017
                 J. Koput, K. A. Peterson, J. Phys. Chem. 106, 9595 (2002)
         Ga-Kr : Obtained from the Peterson Research Group Website (tyr0.chem.wsu.edu/~kipeters) Feb. 2017
                 N. J. DeYonker, K. A. Peterson, A. K. Wilson, J. Phys. Chem. A 111, 11383 (2007)

================================================================================
                                        WARNINGS
                       Please study these warnings very carefully!
================================================================================


INFO   : the flag for use of LIBINT has been found!

================================================================================
                                       INPUT FILE
================================================================================
NAME = Kr_cc-pcvtz_34.25899725_.inp
|  1> ! LDA cc-pcvtz nori grid5 finalgrid6 verytightscf
|  2> %Pal NProcs 18 End
|  3> 
|  4> % REL
|  5>   Method ZORA
|  6>   ModelPot 1, 0, 0, 0
|  7>   velit 34.25899725
|  8> END
|  9> 
| 10> *xyz 34 1
| 11> Kr 0.0 0.0 0.0
| 12> **                         ****END OF INPUT****
================================================================================

                       ****************************
                       * Single Point Calculation *
                       ****************************

---------------------------------
CARTESIAN COORDINATES (ANGSTROEM)
---------------------------------
  Kr     0.000000    0.000000    0.000000

----------------------------
CARTESIAN COORDINATES (A.U.)
----------------------------
  NO LB      ZA    FRAG     MASS         X           Y           Z
   0 Kr   36.0000    0    83.800    0.000000    0.000000    0.000000

--------------------------------
INTERNAL COORDINATES (ANGSTROEM)
--------------------------------
 Kr     0   0   0     0.000000000000     0.00000000     0.00000000

---------------------------
INTERNAL COORDINATES (A.U.)
---------------------------
 Kr     0   0   0     0.000000000000     0.00000000     0.00000000

---------------------
BASIS SET INFORMATION
---------------------
There are 1 groups of distinct atoms

 Group   1 Type Kr  : 76s37p11d3f1g contracted to 8s7p5d3f1g pattern {181818181111/1111111111/71111/111/1}

Atom   0Kr   basis set group =>   1


           ************************************************************
           *        Program running with 18 parallel MPI-processes    *
           *              working on a common directory               *
           ************************************************************
------------------------------------------------------------------------------
                           ORCA GTO INTEGRAL CALCULATION
------------------------------------------------------------------------------

                         BASIS SET STATISTICS AND STARTUP INFO

 # of primitive gaussian shells          ...  128
 # of primitive gaussian functions       ...  272
 # of contracted shells                  ...   24
 # of contracted basis functions         ...   84
 Highest angular momentum                ...    4
 Maximum contraction depth               ...   18
 Integral package used                   ... LIBINT
 Integral threshhold            Thresh   ...  1.000e-12
 Primitive cut-off              TCut     ...  1.000e-14


------------------------------ INTEGRAL EVALUATION ----------------------------


 * One electron integrals 
 Pre-screening matrix                    ... done
 Shell pair data                         ... done (   0.000 sec)



           ************************************************************
           *        Program running with 18 parallel MPI-processes    *
           *              working on a common directory               *
           ************************************************************
------------------------------------------------------------------------------
                          ORCA RELATIVISTIC HAMILTONIAN
------------------------------------------------------------------------------

Relativistic Method            ... ZORA(MP)
Treatment of potential         ... Van Wuellen
Nucleus model                  ... Point Nucleus
Speed of light used            ...  34.25899725000000


            *************************************************
            *         ZERO ORDER REGULAR APPROXIMATION      *
            *                     ZORA(MP)                  *
            *            Programmed by FN according to      *
            *                   C. van Wuellen              *
            *       J. Chem. Phys. (1998) vol 109, 392-399  *
            *************************************************

Terms included in model potential: +V(e,N)
Basis function cutoff value   ... 1.000000e-12
Loading the fitted atomic densities  (DKH4)  ... done
Calculating the cutoffs                      ... done
Number of fit functions                      ... 27
Setting up the integration grid ... done


           ************************************************************
           *        Program running with 18 parallel MPI-processes    *
           *              working on a common directory               *
           ************************************************************
-------------------------------------------------------------------------------
                                 ORCA SCF
-------------------------------------------------------------------------------

------------
SCF SETTINGS
------------
Hamiltonian:
 Density Functional     Method          .... DFT(GTOs)
 Exchange Functional    Exchange        .... Slater
   X-Alpha parameter    XAlpha          ....  0.666667
 Correlation Functional Correlation     .... VWN-5
 Gradients option       PostSCFGGA      .... off
   Density functional embedding theory  .... OFF

Relativistic Settings:
 Scalar relativistic method             .... ZORA
 Speed of light used       Velit        ....       34.2589973
Orbital energies will be scaled


General Settings:
 Integral files         IntName         .... Kr_cc-pcvtz_34.25899725_
 Hartree-Fock type      HFTyp           .... RHF
 Total Charge           Charge          ....   34
 Multiplicity           Mult            ....    1
 Number of Electrons    NEL             ....    2
 Basis Dimension        Dim             ....   84
 Nuclear Repulsion      ENuc            ....      0.0000000000 Eh

Convergence Acceleration:
 DIIS                   CNVDIIS         .... on
   Start iteration      DIISMaxIt       ....    12
   Startup error        DIISStart       ....  0.200000
   # of expansion vecs  DIISMaxEq       ....     5
   Bias factor          DIISBfac        ....   1.050
   Max. coefficient     DIISMaxC        ....  10.000
 Newton-Raphson         CNVNR           .... off
 SOSCF                  CNVSOSCF        .... on
   Start iteration      SOSCFMaxIt      ....   150
   Startup grad/error   SOSCFStart      ....  0.003300
 Level Shifting         CNVShift        .... on
   Level shift para.    LevelShift      ....    0.2500
   Turn off err/grad.   ShiftErr        ....    0.0010
 Zerner damping         CNVZerner       .... off
 Static damping         CNVDamp         .... on
   Fraction old density DampFac         ....    0.7000
   Max. Damping (<1)    DampMax         ....    0.9800
   Min. Damping (>=0)   DampMin         ....    0.0000
   Turn off err/grad.   DampErr         ....    0.1000
 Fernandez-Rico         CNVRico         .... off

SCF Procedure:
 Maximum # iterations   MaxIter         ....   125
 SCF integral mode      SCFMode         .... Direct
   Integral package                     .... LIBINT
 Reset frequency        DirectResetFreq ....    20
 Integral Threshold     Thresh          ....  1.000e-12 Eh
 Primitive CutOff       TCut            ....  1.000e-14 Eh

Convergence Tolerance:
 Convergence Check Mode ConvCheckMode   .... Total+1el-Energy
 Convergence forced     ConvForced      .... 0
 Energy Change          TolE            ....  1.000e-09 Eh
 1-El. energy change                    ....  1.000e-06 Eh
 Orbital Gradient       TolG            ....  2.000e-06
 Orbital Rotation angle TolX            ....  2.000e-06
 DIIS Error             TolErr          ....  1.000e-08


Diagonalization of the overlap matrix:
Smallest eigenvalue                        ... 1.149e-03
Time for diagonalization                   ...    0.001 sec
Threshold for overlap eigenvalues          ... 1.000e-08
Number of eigenvalues below threshold      ... 0
Time for construction of square roots      ...    0.001 sec
Total time needed                          ...    0.003 sec

-------------------
DFT GRID GENERATION
-------------------

General Integration Accuracy     IntAcc      ...  5.010
Radial Grid Type                 RadialGrid  ... Gauss-Chebyshev
Angular Grid (max. acc.)         AngularGrid ... Lebedev-434
Angular grid pruning method      GridPruning ... 3 (G Style)
Weight generation scheme         WeightScheme... Becke
Basis function cutoff            BFCut       ...    1.0000e-12
Integration weight cutoff        WCut        ...    1.0000e-14
Grids for H and He will be reduced by one unit

# of grid points (after initial pruning)     ...  16106 (   0.0 sec)
# of grid points (after weights+screening)   ...  16106 (   0.0 sec)
Grid point division into batches done        ...    0.2 sec
Reduced shell lists constructed in    0.2 sec

Total number of grid points                  ...    16106
Total number of batches                      ...      252
Average number of points per batch           ...       63
Average number of grid points per atom       ...    16106
Average number of shells per batch           ...     0.53 ( 2.22%)
Average number of basis functions per batch  ...     1.60 ( 1.90%)
Average number of large shells per batch     ...     0.53 (100.00%)
Average number of large basis fcns per batch ...     1.60 (100.00%)
Maximum spatial batch extension              ...  17.34, 17.34, 17.34 au
Average spatial batch extension              ...   0.86,  0.87,  0.87 au

Time for grid setup =    0.258 sec

------------------------------
INITIAL GUESS: MODEL POTENTIAL
------------------------------
Loading ZORA relativistic densities                ... done
Calculating cut-offs                               ... done
Setting up the integral package                    ... done
Initializing the effective Hamiltonian             ... done
Starting the Coulomb interaction                   ... done (   0.0 sec)
Reading the grid                                   ... done
Mapping shells                                     ... done
Starting the XC term evaluation                    ... done (   0.0 sec)
  promolecular density results
     # of electrons  =     36.000000565
     EX              =    -91.042004939
     EC              =     -3.295965580
     EX+EC           =    -94.337970520
Transforming the Hamiltonian                       ... done (   0.0 sec)
Diagonalizing the Hamiltonian                      ... done (   0.0 sec)
Back transforming the eigenvectors                 ... done (   0.0 sec)
Now organizing SCF variables                       ... done
                      ------------------
                      INITIAL GUESS DONE (   0.3 sec)
                      ------------------
--------------
SCF ITERATIONS
--------------
ITER       Energy         Delta-E        Max-DP      RMS-DP      [F,P]     Damp
               ***  Starting incremental Fock matrix formation  ***
  0  -1697.7840129484   0.000000000000 0.09265731  0.00199298  0.5230850 0.7000
                      *** Initiating the SOSCF procedure ***
                      *** Re-Reading the Fockian *** 
                      *** Removing any level shift *** 
ITER      Energy       Delta-E        Grad      Rot      Max-DP    RMS-DP
  1  -1697.79617678  -0.0121638335  0.000923  0.000923  0.216271  0.004652
               *** Restarting incremental Fock matrix formation ***
  2  -1697.82455310  -0.0283763204  0.000616  0.000001  0.000037  0.000001
                  ***Gradient check signals convergence***
              ***Rediagonalizing the Fockian in SOSCF/NRSCF***

               *****************************************************
               *                     SUCCESS                       *
               *           SCF CONVERGED AFTER   3 CYCLES          *
               *****************************************************

Setting up the final grid:

General Integration Accuracy     IntAcc      ...  5.340
Radial Grid Type                 RadialGrid  ... Gauss-Chebyshev
Angular Grid (max. acc.)         AngularGrid ... Lebedev-590
Angular grid pruning method      GridPruning ... 3 (G Style)
Weight generation scheme         WeightScheme... Becke
Basis function cutoff            BFCut       ...    1.0000e-12
Integration weight cutoff        WCut        ...    1.0000e-14
Grids for H and He will be reduced by one unit

# of grid points (after initial pruning)     ...  24180 (   0.0 sec)
# of grid points (after weights+screening)   ...  24180 (   0.0 sec)
Grid point division into batches done        ...    0.4 sec
Reduced shell lists constructed in    0.4 sec

Total number of grid points                  ...    24180
Total number of batches                      ...      378
Average number of points per batch           ...       63
Average number of grid points per atom       ...    24180
Average number of shells per batch           ...     0.27 ( 1.14%)
Average number of basis functions per batch  ...     0.55 ( 0.65%)
Average number of large shells per batch     ...     0.14 (50.00%)
Average number of large basis fcns per batch ...     0.41 (75.00%)
Maximum spatial batch extension              ...  17.58, 17.58, 17.58 au
Average spatial batch extension              ...   0.77,  0.77,  0.77 au

Final grid set up in    0.5 sec
Final integration                            ... done (   0.0 sec)
Change in XC energy                          ...    -0.000110596
Integrated number of electrons               ...     1.999999879
Previous integrated no of electrons          ...     1.999998177

----------------
TOTAL SCF ENERGY
----------------

Total Energy       :        -1697.82466370 Eh          -46200.15787 eV

Components:
Nuclear Repulsion  :            0.00000000 Eh               0.00000 eV
Electronic Energy  :        -1697.82466370 Eh          -46200.15787 eV
One Electron Energy:        -1724.38814174 Eh          -46922.98686 eV
Two Electron Energy:           26.56347804 Eh             722.82899 eV

Virial components:
Potential Energy   :        -2658.07968561 Eh          -72330.02543 eV
Kinetic Energy     :          960.25502191 Eh           26129.86756 eV
Virial Ratio       :            2.76809767


DFT components:
N(Alpha)           :        0.999999939409 electrons
N(Beta)            :        0.999999939409 electrons
N(Total)           :        1.999999878817 electrons
E(X)               :      -20.165445811115 Eh       
E(C)               :       -0.281317248257 Eh       
E(XC)              :      -20.446763059371 Eh       
DFET-embed. en.    :        0.000000000000 Eh       

---------------
SCF CONVERGENCE
---------------

  Last Energy change         ...   -1.5989e-09  Tolerance :   1.0000e-09
  Last MAX-Density change    ...    1.2675e-08  Tolerance :   1.0000e-08
  Last RMS-Density change    ...    3.2705e-10  Tolerance :   1.0000e-09
  Last Orbital Gradient      ...    2.3879e-07  Tolerance :   2.0000e-06
  Last Orbital Rotation      ...    3.3405e-10  Tolerance :   2.0000e-06

================================================================================
                                        WARNING
Number of found core electrons (2) does not match given number of chemical core electrons (18)
================================================================================
             **** THE GBW FILE WAS UPDATED (Kr_cc-pcvtz_34.25899725_.gbw) ****
             **** DENSITY FILE WAS UPDATED (Kr_cc-pcvtz_34.25899725_.scfp) ****
             **** ENERGY FILE WAS UPDATED (Kr_cc-pcvtz_34.25899725_.en.tmp) ****
             **** THE GBW FILE WAS UPDATED (Kr_cc-pcvtz_34.25899725_.gbw) ****
             **** DENSITY FILE WAS UPDATED (Kr_cc-pcvtz_34.25899725_.scfp) ****
----------------
ORBITAL ENERGIES
----------------

  NO   OCC          E(Eh)            E(eV) 
   0   2.0000    -828.777891    -22552.1930 
   1   0.0000    -175.783826     -4783.3211 
   2   0.0000    -174.239432     -4741.2960 
   3   0.0000    -174.239432     -4741.2960 
   4   0.0000    -174.239432     -4741.2960 
   5   0.0000     -73.711153     -2005.7824 
   6   0.0000     -73.711153     -2005.7824 
   7   0.0000     -73.711153     -2005.7824 
   8   0.0000     -71.866590     -1955.5893 
   9   0.0000     -69.523645     -1891.8346 
  10   0.0000     -69.523645     -1891.8346 
  11   0.0000     -69.523645     -1891.8346 
  12   0.0000     -69.523645     -1891.8346 
  13   0.0000     -69.523645     -1891.8346 
  14   0.0000     -40.614008     -1105.1634 
  15   0.0000     -40.614008     -1105.1634 
  16   0.0000     -40.614008     -1105.1634 
  17   0.0000     -38.948096     -1059.8316 
  18   0.0000     -38.647667     -1051.6565 
  19   0.0000     -38.647667     -1051.6565 
  20   0.0000     -38.647667     -1051.6565 
  21   0.0000     -38.647667     -1051.6565 
  22   0.0000     -38.647667     -1051.6565 
  23   0.0000     -37.127161     -1010.2814 
  24   0.0000     -37.127161     -1010.2814 
  25   0.0000     -37.127161     -1010.2814 
  26   0.0000     -37.127161     -1010.2814 
  27   0.0000     -37.127161     -1010.2814 
  28   0.0000     -37.127161     -1010.2814 
  29   0.0000     -37.127161     -1010.2814 
  30   0.0000     -25.403853      -691.2740 
  31   0.0000     -25.403853      -691.2740 
  32   0.0000     -25.403853      -691.2740 
  33   0.0000     -24.156738      -657.3383 
  34   0.0000     -24.156738      -657.3383 
  35   0.0000     -24.156738      -657.3383 
  36   0.0000     -24.156738      -657.3383 
  37   0.0000     -24.156738      -657.3383 
  38   0.0000     -23.613158      -642.5467 
  39   0.0000     -21.620838      -588.3329 
  40   0.0000     -21.620838      -588.3329 
  41   0.0000     -21.620838      -588.3329 
  42   0.0000     -21.620838      -588.3329 
  43   0.0000     -21.620838      -588.3329 
  44   0.0000     -21.620838      -588.3329 
  45   0.0000     -21.620838      -588.3329 
  46   0.0000     -18.504781      -503.5407 
  47   0.0000     -18.504781      -503.5407 
  48   0.0000     -18.504781      -503.5407 
  49   0.0000     -18.504781      -503.5407 
  50   0.0000     -18.504781      -503.5407 
  51   0.0000     -18.504781      -503.5407 
  52   0.0000     -18.504781      -503.5407 
  53   0.0000     -18.504781      -503.5407 
  54   0.0000     -18.504781      -503.5407 
  55   0.0000     -17.410769      -473.7711 
  56   0.0000     -17.410769      -473.7711 
  57   0.0000     -17.410769      -473.7711 
  58   0.0000     -16.840182      -458.2447 
  59   0.0000     -16.840182      -458.2447 
  60   0.0000     -16.840182      -458.2447 
  61   0.0000     -16.840182      -458.2447 
  62   0.0000     -16.840182      -458.2447 
  63   0.0000     -15.729779      -428.0291 
  64   0.0000     -15.729779      -428.0291 
  65   0.0000     -15.729779      -428.0291 
  66   0.0000     -15.729779      -428.0291 
  67   0.0000     -15.729779      -428.0291 
  68   0.0000     -15.729779      -428.0291 
  69   0.0000     -15.729779      -428.0291 
  70   0.0000     -14.968171      -407.3046 
  71   0.0000     -12.626721      -343.5906 
  72   0.0000     -12.626721      -343.5906 
  73   0.0000     -12.626721      -343.5906 
  74   0.0000     -11.450772      -311.5913 
  75   0.0000     -11.450772      -311.5913 
  76   0.0000     -11.450772      -311.5913 
  77   0.0000     -11.450772      -311.5913 
  78   0.0000     -11.450772      -311.5913 
  79   0.0000      -9.564545      -260.2645 
  80   0.0000      -8.239964      -224.2208 
  81   0.0000      -8.239964      -224.2208 
  82   0.0000      -8.239964      -224.2208 
  83   0.0000       5.239111       142.5635 

                    ********************************
                    * MULLIKEN POPULATION ANALYSIS *
                    ********************************

-----------------------
MULLIKEN ATOMIC CHARGES
-----------------------
   0 Kr:   34.000000
Sum of atomic charges:   34.0000000

--------------------------------
MULLIKEN REDUCED ORBITAL CHARGES
--------------------------------
  0 Krs       :     2.000000  s :     2.000000
      pz      :     0.000000  p :     0.000000
      px      :     0.000000
      py      :     0.000000
      dz2     :     0.000000  d :     0.000000
      dxz     :     0.000000
      dyz     :     0.000000
      dx2y2   :     0.000000
      dxy     :     0.000000
      f0      :     0.000000  f :     0.000000
      f+1     :     0.000000
      f-1     :     0.000000
      f+2     :     0.000000
      f-2     :     0.000000
      f+3     :     0.000000
      f-3     :     0.000000
      g0      :    -0.000000  g :     0.000000
      g+1     :     0.000000
      g-1     :     0.000000
      g+2     :     0.000000
      g-2     :     0.000000
      g+3     :     0.000000
      g-3     :     0.000000
      g+4     :     0.000000
      g-4     :     0.000000


                     *******************************
                     * LOEWDIN POPULATION ANALYSIS *
                     *******************************

----------------------
LOEWDIN ATOMIC CHARGES
----------------------
   0 Kr:   34.000000

-------------------------------
LOEWDIN REDUCED ORBITAL CHARGES
-------------------------------
  0 Krs       :     2.000000  s :     2.000000
      pz      :     0.000000  p :     0.000000
      px      :     0.000000
      py      :     0.000000
      dz2     :     0.000000  d :     0.000000
      dxz     :     0.000000
      dyz     :     0.000000
      dx2y2   :     0.000000
      dxy     :     0.000000
      f0      :     0.000000  f :     0.000000
      f+1     :     0.000000
      f-1     :     0.000000
      f+2     :     0.000000
      f-2     :     0.000000
      f+3     :     0.000000
      f-3     :     0.000000
      g0      :     0.000000  g :     0.000000
      g+1     :     0.000000
      g-1     :     0.000000
      g+2     :     0.000000
      g-2     :     0.000000
      g+3     :     0.000000
      g-3     :     0.000000
      g+4     :     0.000000
      g-4     :     0.000000


                      *****************************
                      * MAYER POPULATION ANALYSIS *
                      *****************************

  NA   - Mulliken gross atomic population
  ZA   - Total nuclear charge
  QA   - Mulliken gross atomic charge
  VA   - Mayer's total valence
  BVA  - Mayer's bonded valence
  FA   - Mayer's free valence

  ATOM       NA         ZA         QA         VA         BVA        FA
  0 Kr     2.0000    36.0000    34.0000    -0.0000     0.0000    -0.0000

  Mayer bond orders larger than 0.100000


--------------------------
ATOM BASIS FOR ELEMENT Kr
--------------------------
 NewGTO Kr
 S 76
    1   11718110.000000000000         0.000005814040
    2    1754604.000000000000         0.000045474095
    3     399281.299999999988         0.000239310021
    4     113084.600000000006         0.001010500840
    5      36885.930000000000         0.003668762786
    6      13312.209999999999         0.011853061693
    7       5189.988000000000         0.034398868897
    8       2151.660000000000         0.088712276806
    9        938.032500000000         0.194056444360
   10        426.557300000000         0.327014911928
   11        201.066600000000         0.347112074077
   12         97.097610000000         0.167030089095
   13         42.998720000000         0.018525502668
   14         21.177070000000        -0.001432018709
   15         10.426750000000         0.000682319072
   16          4.585008000000        -0.000351749394
   17          2.117603000000         0.000125728606
   18          0.349225000000         0.000037998901
   19   11718110.000000000000        -0.000000282381
   20    1754604.000000000000        -0.000002164919
   21     399281.299999999988        -0.000011389355
   22     113084.600000000006        -0.000048051784
   23      36885.930000000000        -0.000175342732
   24      13312.209999999999        -0.000568997127
   25       5189.988000000000        -0.001685373569
   26       2151.660000000000        -0.004502278011
   27        938.032500000000        -0.010772494573
   28        426.557300000000        -0.021416301983
   29        201.066600000000        -0.031727951240
   30         97.097610000000        -0.017108647031
   31         42.998720000000         0.052064225453
   32         21.177070000000         0.093315058194
   33         10.426750000000         0.038040211152
   34          4.585008000000         0.002702085309
   35          2.117603000000         0.000057809606
   36          0.349225000000        -0.000018088053
   37   11718110.000000000000         0.000000324343
   38    1754604.000000000000         0.000002548411
   39     399281.299999999988         0.000013529743
   40     113084.600000000006         0.000056899057
   41      36885.930000000000         0.000208089305
   42      13312.209999999999         0.000674494770
   43       5189.988000000000         0.002007174483
   44       2151.660000000000         0.005373207805
   45        938.032500000000         0.013047166988
   46        426.557300000000         0.026426507706
   47        201.066600000000         0.041300746053
   48         97.097610000000         0.023557553446
   49         42.998720000000        -0.089010420293
   50         21.177070000000        -0.237282042829
   51         10.426750000000        -0.086043931410
   52          4.585008000000         0.308316855472
   53          2.117603000000         0.279116982068
   54          0.349225000000        -0.004932471784
   55   11718110.000000000000         0.000000039584
   56    1754604.000000000000         0.000000356257
   57     399281.299999999988         0.000001840661
   58     113084.600000000006         0.000007738693
   59      36885.930000000000         0.000028302635
   60      13312.209999999999         0.000091815332
   61       5189.988000000000         0.000273150119
   62       2151.660000000000         0.000732325742
   63        938.032500000000         0.001779721170
   64        426.557300000000         0.003622361276
   65        201.066600000000         0.005691382880
   66         97.097610000000         0.003311685425
   67         42.998720000000        -0.012912533098
   68         21.177070000000        -0.036306976886
   69         10.426750000000        -0.013699722410
   70          4.585008000000         0.062464391230
   71          2.117603000000         0.099583732919
   72          0.349225000000        -0.141940111127
   73          0.707057000000         0.219510375067
   74          0.144821000000         0.037526171308
   75          2.211600000000        -0.733675525131
   76         10.467400000000         0.016581935484
 S 76
    1   11718110.000000000000        -0.000001262275
    2    1754604.000000000000        -0.000009872791
    3     399281.299999999988        -0.000051956124
    4     113084.600000000006        -0.000219387834
    5      36885.930000000000        -0.000796517814
    6      13312.209999999999        -0.002573394721
    7       5189.988000000000        -0.007468270218
    8       2151.660000000000        -0.019260146513
    9        938.032500000000        -0.042131209847
   10        426.557300000000        -0.070997559101
   11        201.066600000000        -0.075360814126
   12         97.097610000000        -0.036263571445
   13         42.998720000000        -0.004022035151
   14         21.177070000000         0.000310902742
   15         10.426750000000        -0.000148136941
   16          4.585008000000         0.000076367613
   17          2.117603000000        -0.000027296688
   18          0.349225000000        -0.000008249866
   19   11718110.000000000000         0.000002099405
   20    1754604.000000000000         0.000016095436
   21     399281.299999999988         0.000084675989
   22     113084.600000000006         0.000357248699
   23      36885.930000000000         0.001303613681
   24      13312.209999999999         0.004230300458
   25       5189.988000000000         0.012530180283
   26       2151.660000000000         0.033472908442
   27        938.032500000000         0.080089839772
   28        426.557300000000         0.159222934171
   29        201.066600000000         0.235886545483
   30         97.097610000000         0.127196982098
   31         42.998720000000        -0.387079839867
   32         21.177070000000        -0.693765776183
   33         10.426750000000        -0.282816054845
   34          4.585008000000        -0.020089086884
   35          2.117603000000        -0.000429794794
   36          0.349225000000         0.000134478534
   37   11718110.000000000000         0.000000281702
   38    1754604.000000000000         0.000002213376
   39     399281.299999999988         0.000011751014
   40     113084.600000000006         0.000049418647
   41      36885.930000000000         0.000180732202
   42      13312.209999999999         0.000585820234
   43       5189.988000000000         0.001743295097
   44       2151.660000000000         0.004666802462
   45        938.032500000000         0.011331880924
   46        426.557300000000         0.022952265335
   47        201.066600000000         0.035871016045
   48         97.097610000000         0.020460486998
   49         42.998720000000        -0.077308390758
   50         21.177070000000        -0.206087026963
   51         10.426750000000        -0.074731900489
   52          4.585008000000         0.267783028793
   53          2.117603000000         0.242422006838
   54          0.349225000000        -0.004284009162
   55   11718110.000000000000         0.000000044000
   56    1754604.000000000000         0.000000395997
   57     399281.299999999988         0.000002045986
   58     113084.600000000006         0.000008601942
   59      36885.930000000000         0.000031459788
   60      13312.209999999999         0.000102057311
   61       5189.988000000000         0.000303619951
   62       2151.660000000000         0.000814016508
   63        938.032500000000         0.001978248652
   64        426.557300000000         0.004026434832
   65        201.066600000000         0.006326255314
   66         97.097610000000         0.003681103162
   67         42.998720000000        -0.014352923155
   68         21.177070000000        -0.040357011696
   69         10.426750000000        -0.015227923251
   70          4.585008000000         0.069432279514
   71          2.117603000000         0.110692275117
   72          0.349225000000        -0.157773497442
   73          0.707057000000         0.242617525868
   74          0.144821000000         0.041047073768
   75          2.211600000000        -0.720762457024
   76         10.467400000000         0.540668420146
 S 76
    1   11718110.000000000000        -0.000001319547
    2    1754604.000000000000        -0.000010320739
    3     399281.299999999988        -0.000054313477
    4     113084.600000000006        -0.000229341899
    5      36885.930000000000        -0.000832657420
    6      13312.209999999999        -0.002690154787
    7       5189.988000000000        -0.007807120577
    8       2151.660000000000        -0.020134017887
    9        938.032500000000        -0.044042787115
   10        426.557300000000        -0.074218860378
   11        201.066600000000        -0.078780085011
   12         97.097610000000        -0.037908922221
   13         42.998720000000        -0.004204522931
   14         21.177070000000         0.000325009022
   15         10.426750000000        -0.000154858210
   16          4.585008000000         0.000079832565
   17          2.117603000000        -0.000028535194
   18          0.349225000000        -0.000008624179
   19   11718110.000000000000         0.000000198343
   20    1754604.000000000000         0.000001520633
   21     399281.299999999988         0.000007999851
   22     113084.600000000006         0.000033751439
   23      36885.930000000000         0.000123160246
   24      13312.209999999999         0.000399661997
   25       5189.988000000000         0.001183801699
   26       2151.660000000000         0.003162387531
   27        938.032500000000         0.007566570173
   28        426.557300000000         0.015042750841
   29        201.066600000000         0.022285624549
   30         97.097610000000         0.012017066005
   31         42.998720000000        -0.036569766894
   32         21.177070000000        -0.065544236875
   33         10.426750000000        -0.026719338323
   34          4.585008000000        -0.001897937192
   35          2.117603000000        -0.000040605306
   36          0.349225000000         0.000012704998
   37   11718110.000000000000         0.000001293502
   38    1754604.000000000000         0.000010163226
   39     399281.299999999988         0.000053957492
   40     113084.600000000006         0.000226917124
   41      36885.930000000000         0.000829873618
   42      13312.209999999999         0.002689928804
   43       5189.988000000000         0.008004741765
   44       2151.660000000000         0.021428700543
   45        938.032500000000         0.052032946513
   46        426.557300000000         0.105390623368
   47        201.066600000000         0.164710048731
   48         97.097610000000         0.093949048064
   49         42.998720000000        -0.354979317931
   50         21.177070000000        -0.946296146494
   51         10.426750000000        -0.343148768241
   52          4.585008000000         1.229587577525
   53          2.117603000000         1.113136592229
   54          0.349225000000        -0.019671016763
   55   11718110.000000000000         0.000000059278
   56    1754604.000000000000         0.000000533501
   57     399281.299999999988         0.000002756424
   58     113084.600000000006         0.000011588836
   59      36885.930000000000         0.000042383721
   60      13312.209999999999         0.000137495163
   61       5189.988000000000         0.000409047368
   62       2151.660000000000         0.001096671376
   63        938.032500000000         0.002665165449
   64        426.557300000000         0.005424553171
   65        201.066600000000         0.008522951384
   66         97.097610000000         0.004959310323
   67         42.998720000000        -0.019336757716
   68         21.177070000000        -0.054370371029
   69         10.426750000000        -0.020515588305
   70          4.585008000000         0.093541583977
   71          2.117603000000         0.149128486360
   72          0.349225000000        -0.212557948026
   73          0.707057000000         0.355771327472
   74          0.144821000000         0.058020982242
   75          2.211600000000        -1.969677899804
   76         10.467400000000         1.366859027476
 S 76
    1   11718110.000000000000        -0.000000973763
    2    1754604.000000000000        -0.000007616216
    3     399281.299999999988        -0.000040080770
    4     113084.600000000006        -0.000169243444
    5      36885.930000000000        -0.000614461684
    6      13312.209999999999        -0.001985206640
    7       5189.988000000000        -0.005761284696
    8       2151.660000000000        -0.014857950250
    9        938.032500000000        -0.032501487954
   10        426.557300000000        -0.054769998780
   11        201.066600000000        -0.058135966221
   12         97.097610000000        -0.027974986590
   13         42.998720000000        -0.003102738504
   14         21.177070000000         0.000239841243
   15         10.426750000000        -0.000114278014
   16          4.585008000000         0.000058912646
   17          2.117603000000        -0.000021057619
   18          0.349225000000        -0.000006364235
   19   11718110.000000000000        -0.000000314202
   20    1754604.000000000000        -0.000002408885
   21     399281.299999999988        -0.000012672832
   22     113084.600000000006        -0.000053466783
   23      36885.930000000000        -0.000195102264
   24      13312.209999999999        -0.000633117931
   25       5189.988000000000        -0.001875299851
   26       2151.660000000000        -0.005009643819
   27        938.032500000000        -0.011986456794
   28        426.557300000000        -0.023829724551
   29        201.066600000000        -0.035303402951
   30         97.097610000000        -0.019036636040
   31         42.998720000000         0.057931390420
   32         21.177070000000         0.103830817057
   33         10.426750000000         0.042326997179
   34          4.585008000000         0.003006585762
   35          2.117603000000         0.000064324223
   36          0.349225000000        -0.000020126412
   37   11718110.000000000000         0.000001204667
   38    1754604.000000000000         0.000009465240
   39     399281.299999999988         0.000050251818
   40     113084.600000000006         0.000211332989
   41      36885.930000000000         0.000772879849
   42      13312.209999999999         0.002505190817
   43       5189.988000000000         0.007454994917
   44       2151.660000000000         0.019957027759
   45        938.032500000000         0.048459446053
   46        426.557300000000         0.098152643083
   47        201.066600000000         0.153398149745
   48         97.097610000000         0.087496848276
   49         42.998720000000        -0.330600172776
   50         21.177070000000        -0.881306751478
   51         10.426750000000        -0.319582117430
   52          4.585008000000         1.145142392920
   53          2.117603000000         1.036688987569
   54          0.349225000000        -0.018320057569
   55   11718110.000000000000         0.000000105479
   56    1754604.000000000000         0.000000949310
   57     399281.299999999988         0.000004904771
   58     113084.600000000006         0.000020621133
   59      36885.930000000000         0.000075417442
   60      13312.209999999999         0.000244658402
   61       5189.988000000000         0.000727857427
   62       2151.660000000000         0.001951413134
   63        938.032500000000         0.004742385892
   64        426.557300000000         0.009652430560
   65        201.066600000000         0.015165709287
   66         97.097610000000         0.008824579098
   67         42.998720000000        -0.034407757698
   68         21.177070000000        -0.096746444248
   69         10.426750000000        -0.036505364643
   70          4.585008000000         0.166447560826
   71          2.117603000000         0.265358696624
   72          0.349225000000        -0.378224854434
   73          0.707057000000         0.645047326210
   74          0.144821000000         0.095914413725
   75          2.211600000000        -3.893517067525
   76         10.467400000000         1.798670224709
 S 76
    1   11718110.000000000000        -0.000001445770
    2    1754604.000000000000        -0.000011307986
    3     399281.299999999988        -0.000059508924
    4     113084.600000000006        -0.000251279981
    5      36885.930000000000        -0.000912306658
    6      13312.209999999999        -0.002947486041
    7       5189.988000000000        -0.008553923749
    8       2151.660000000000        -0.022059971032
    9        938.032500000000        -0.048255773556
   10        426.557300000000        -0.081318389563
   11        201.066600000000        -0.086315925764
   12         97.097610000000        -0.041535163561
   13         42.998720000000        -0.004606713602
   14         21.177070000000         0.000356098303
   15         10.426750000000        -0.000169671431
   16          4.585008000000         0.000087469082
   17          2.117603000000        -0.000031264775
   18          0.349225000000        -0.000009449139
   19   11718110.000000000000         0.000001105615
   20    1754604.000000000000         0.000008476380
   21     399281.299999999988         0.000044593130
   22     113084.600000000006         0.000188138782
   23      36885.930000000000         0.000686525358
   24      13312.209999999999         0.002227813789
   25       5189.988000000000         0.006598800412
   26       2151.660000000000         0.017627922108
   27        938.032500000000         0.042177914107
   28        426.557300000000         0.083851974988
   29        201.066600000000         0.124225525768
   30         97.097610000000         0.066986067158
   31         42.998720000000        -0.203848831325
   32         21.177070000000        -0.365359618668
   33         10.426750000000        -0.148940131524
   34          4.585008000000        -0.010579566440
   35          2.117603000000        -0.000226343915
   36          0.349225000000         0.000070820769
   37   11718110.000000000000        -0.000000249730
   38    1754604.000000000000        -0.000001962164
   39     399281.299999999988        -0.000010417305
   40     113084.600000000006        -0.000043809760
   41      36885.930000000000        -0.000160219572
   42      13312.209999999999        -0.000519331174
   43       5189.988000000000        -0.001545435676
   44       2151.660000000000        -0.004137132625
   45        938.032500000000        -0.010045742166
   46        426.557300000000        -0.020347243431
   47        201.066600000000        -0.031799749825
   48         97.097610000000        -0.018138275398
   49         42.998720000000         0.068534091212
   50         21.177070000000         0.182696690037
   51         10.426750000000         0.066250025830
   52          4.585008000000        -0.237390357508
   53          2.117603000000        -0.214907745015
   54          0.349225000000         0.003797785361
   55   11718110.000000000000         0.000000396412
   56    1754604.000000000000         0.000003567707
   57     399281.299999999988         0.000018433151
   58     113084.600000000006         0.000077498517
   59      36885.930000000000         0.000283434476
   60      13312.209999999999         0.000919477295
   61       5189.988000000000         0.002735439999
   62       2151.660000000000         0.007333817506
   63        938.032500000000         0.017822875164
   64        426.557300000000         0.036275846969
   65        201.066600000000         0.056995898168
   66         97.097610000000         0.033164608533
   67         42.998720000000        -0.129311528847
   68         21.177070000000        -0.363593313055
   69         10.426750000000        -0.137194773182
   70          4.585008000000         0.625544644675
   71          2.117603000000         0.997273320004
   72          0.349225000000        -1.421447878241
   73          0.707057000000         3.393235606071
   74          0.144821000000         0.302196966344
   75          2.211600000000        -3.661056758426
   76         10.467400000000         1.596057812719
 S 76
    1   11718110.000000000000         0.000001705685
    2    1754604.000000000000         0.000013340892
    3     399281.299999999988         0.000070207208
    4     113084.600000000006         0.000296454124
    5      36885.930000000000         0.001076317617
    6      13312.209999999999         0.003477373670
    7       5189.988000000000         0.010091715041
    8       2151.660000000000         0.026025827212
    9        938.032500000000         0.056931009688
   10        426.557300000000         0.095937494787
   11        201.066600000000         0.101833468697
   12         97.097610000000         0.049002194449
   13         42.998720000000         0.005434890737
   14         21.177070000000        -0.000420116277
   15         10.426750000000         0.000200174304
   16          4.585008000000        -0.000103193935
   17          2.117603000000         0.000036885435
   18          0.349225000000         0.000011147869
   19   11718110.000000000000        -0.000002346490
   20    1754604.000000000000        -0.000017989755
   21     399281.299999999988        -0.000094641756
   22     113084.600000000006        -0.000399294353
   23      36885.930000000000        -0.001457039824
   24      13312.209999999999        -0.004728177008
   25       5189.988000000000        -0.014004894192
   26       2151.660000000000        -0.037412433856
   27        938.032500000000        -0.089515849459
   28        426.557300000000        -0.177962351357
   29        201.066600000000        -0.263648729413
   30         97.097610000000        -0.142167170437
   31         42.998720000000         0.432636408972
   32         21.177070000000         0.775417118541
   33         10.426750000000         0.316101511279
   34          4.585008000000         0.022453430827
   35          2.117603000000         0.000480378613
   36          0.349225000000        -0.000150305710
   37   11718110.000000000000         0.000002314551
   38    1754604.000000000000         0.000018185757
   39     399281.299999999988         0.000096549837
   40     113084.600000000006         0.000406038355
   41      36885.930000000000         0.001484949716
   42      13312.209999999999         0.004813273885
   43       5189.988000000000         0.014323432811
   44       2151.660000000000         0.038343841870
   45        938.032500000000         0.093106115751
   46        426.557300000000         0.188582662255
   47        201.066600000000         0.294726973777
   48         97.097610000000         0.168109467749
   49         42.998720000000        -0.635188811693
   50         21.177070000000        -1.693272521633
   51         10.426750000000        -0.614019598672
   52          4.585008000000         2.200185286266
   53          2.117603000000         1.991811560714
   54          0.349225000000        -0.035198697871
   55   11718110.000000000000        -0.000001295549
   56    1754604.000000000000        -0.000011659939
   57     399281.299999999988        -0.000060243018
   58     113084.600000000006        -0.000253279786
   59      36885.930000000000        -0.000926317377
   60      13312.209999999999        -0.003005025393
   61       5189.988000000000        -0.008939934349
   62       2151.660000000000        -0.023968300186
   63        938.032500000000        -0.058248520878
   64        426.557300000000        -0.118556316540
   65        201.066600000000        -0.186273355669
   66         97.097610000000        -0.108388201948
   67         42.998720000000         0.422614489452
   68         21.177070000000         1.188291591131
   69         10.426750000000         0.448378420245
   70          4.585008000000        -2.044397997583
   71          2.117603000000        -3.259277488531
   72          0.349225000000         4.645560026262
   73          0.707057000000        -4.769829963674
   74          0.144821000000        -0.766336056107
   75          2.211600000000         2.962902423833
   76         10.467400000000        -1.100869623907
 S 76
    1   11718110.000000000000         0.000001431522
    2    1754604.000000000000         0.000011196545
    3     399281.299999999988         0.000058922458
    4     113084.600000000006         0.000248803592
    5      36885.930000000000         0.000903315786
    6      13312.209999999999         0.002918438275
    7       5189.988000000000         0.008469623984
    8       2151.660000000000         0.021842567836
    9        938.032500000000         0.047780208134
   10        426.557300000000         0.080516988789
   11        201.066600000000         0.085465273777
   12         97.097610000000         0.041125830415
   13         42.998720000000         0.004561313984
   14         21.177070000000        -0.000352588919
   15         10.426750000000         0.000167999302
   16          4.585008000000        -0.000086607066
   17          2.117603000000         0.000030956658
   18          0.349225000000         0.000009356017
   19   11718110.000000000000        -0.000002314215
   20    1754604.000000000000        -0.000017742313
   21     399281.299999999988        -0.000093339993
   22     113084.600000000006        -0.000393802203
   23      36885.930000000000        -0.001436998768
   24      13312.209999999999        -0.004663142641
   25       5189.988000000000        -0.013812261931
   26       2151.660000000000        -0.036897839341
   27        938.032500000000        -0.088284591281
   28        426.557300000000        -0.175514543492
   29        201.066600000000        -0.260022336366
   30         97.097610000000        -0.140211712356
   31         42.998720000000         0.426685651429
   32         21.177070000000         0.764751536146
   33         10.426750000000         0.311753649163
   34          4.585008000000         0.022144591996
   35          2.117603000000         0.000473771178
   36          0.349225000000        -0.000148238309
   37   11718110.000000000000         0.000002703941
   38    1754604.000000000000         0.000021245248
   39     399281.299999999988         0.000112792951
   40     113084.600000000006         0.000474348437
   41      36885.930000000000         0.001734771033
   42      13312.209999999999         0.005623037616
   43       5189.988000000000         0.016733143264
   44       2151.660000000000         0.044794638809
   45        938.032500000000         0.108769873403
   46        426.557300000000         0.220308968257
   47        201.066600000000         0.344310525337
   48         97.097610000000         0.196391454820
   49         42.998720000000        -0.742050144372
   50         21.177070000000        -1.978141138523
   51         10.426750000000        -0.717319517369
   52          4.585008000000         2.570334645800
   53          2.117603000000         2.326905054028
   54          0.349225000000        -0.041120369811
   55   11718110.000000000000        -0.000001450481
   56    1754604.000000000000        -0.000013054329
   57     399281.299999999988        -0.000067447365
   58     113084.600000000006        -0.000283569029
   59      36885.930000000000        -0.001037093892
   60      13312.209999999999        -0.003364390604
   61       5189.988000000000        -0.010009043915
   62       2151.660000000000        -0.026834623136
   63        938.032500000000        -0.065214349532
   64        426.557300000000        -0.132734238562
   65        201.066600000000        -0.208549428244
   66         97.097610000000        -0.121350138690
   67         42.998720000000         0.473154143951
   68         21.177070000000         1.330397098534
   69         10.426750000000         0.501999133708
   70          4.585008000000        -2.288883624638
   71          2.117603000000        -3.649048218824
   72          0.349225000000         5.201113620711
   73          0.707057000000        -3.235061722403
   74          0.144821000000        -3.035255943183
   75          2.211600000000         1.969070364906
   76         10.467400000000        -0.664945299031
 S 76
    1   11718110.000000000000        -0.000018190146
    2    1754604.000000000000        -0.000142272931
    3     399281.299999999988        -0.000748719419
    4     113084.600000000006        -0.003161512410
    5      36885.930000000000        -0.011478307205
    6      13312.209999999999        -0.037084186508
    7       5189.988000000000        -0.107622326020
    8       2151.660000000000        -0.277550451009
    9        938.032500000000        -0.607136414397
   10        426.557300000000        -1.023118102249
   11        201.066600000000        -1.085995266709
   12         97.097610000000        -0.522580168489
   13         42.998720000000        -0.057959978098
   14         21.177070000000         0.004480298024
   15         10.426750000000        -0.002134743610
   16          4.585008000000         0.001100503857
   17          2.117603000000        -0.000393361916
   18          0.349225000000        -0.000118885600
   19   11718110.000000000000         0.000025742270
   20    1754604.000000000000         0.000197357405
   21     399281.299999999988         0.001038271564
   22     113084.600000000006         0.004380476311
   23      36885.930000000000         0.015984519663
   24      13312.209999999999         0.051870674435
   25       5189.988000000000         0.153641309510
   26       2151.660000000000         0.410434755927
   27        938.032500000000         0.982037575143
   28        426.557300000000         1.952343825709
   29        201.066600000000         2.892370015899
   30         97.097610000000         1.559651214448
   31         42.998720000000        -4.746256808757
   32         21.177070000000        -8.506747703573
   33         10.426750000000        -3.467805573121
   34          4.585008000000        -0.246326353333
   35          2.117603000000        -0.005270014759
   36          0.349225000000         0.001648935418
   37   11718110.000000000000        -0.000009411570
   38    1754604.000000000000        -0.000073948052
   39     399281.299999999988        -0.000392596932
   40     113084.600000000006        -0.001651058330
   41      36885.930000000000        -0.006038194593
   42      13312.209999999999        -0.019572032663
   43       5189.988000000000        -0.058242830454
   44       2151.660000000000        -0.155916106873
   45        938.032500000000        -0.378593859818
   46        426.557300000000        -0.766826512117
   47        201.066600000000        -1.198437091860
   48         97.097610000000        -0.683577139415
   49         42.998720000000         2.582844123534
   50         21.177070000000         6.885289698954
   51         10.426750000000         2.496764557196
   52          4.585008000000        -8.946529807678
   53          2.117603000000        -8.099227647074
   54          0.349225000000         0.143127127365
   55   11718110.000000000000        -0.000001029365
   56    1754604.000000000000        -0.000009264281
   57     399281.299999999988        -0.000047865449
   58     113084.600000000006        -0.000201240761
   59      36885.930000000000        -0.000735995621
   60      13312.209999999999        -0.002387610969
   61       5189.988000000000        -0.007103129765
   62       2151.660000000000        -0.019043758021
   63        938.032500000000        -0.046280742818
   64        426.557300000000        -0.094197660516
   65        201.066600000000        -0.148001513818
   66         97.097610000000        -0.086118693200
   67         42.998720000000         0.335783848288
   68         21.177070000000         0.944144446810
   69         10.426750000000         0.356254305512
   70          4.585008000000        -1.624354687768
   71          2.117603000000        -2.589624267628
   72          0.349225000000         3.691080315520
   73          0.707057000000        -5.339533599416
   74          0.144821000000        -1.070911146599
   75          2.211600000000        19.331238871681
   76         10.467400000000         7.187033305509
 P 37
    1       9366.308999999999         0.000725220384
    2       2219.554000000000         0.006297984533
    3        719.452900000000         0.034163347938
    4        273.464500000000         0.132706588499
    5        114.752300000000         0.366875810984
    6         51.155570000000         0.659667043056
    7         23.682680000000         0.621577803445
    8         10.875480000000         0.200685672241
    9          4.955131000000         0.008777720598
   10          2.217267000000         0.003006296457
   11          0.322154000000         0.000376922624
   12       9366.308999999999        -0.000127577067
   13       2219.554000000000        -0.001114445016
   14        719.452900000000        -0.006102114945
   15        273.464500000000        -0.024370631696
   16        114.752300000000        -0.070474090887
   17         51.155570000000        -0.135966445663
   18         23.682680000000        -0.119578355538
   19         10.875480000000         0.132594405774
   20          4.955131000000         0.403342684698
   21          2.217267000000         0.290266531720
   22          0.322154000000        -0.003545455693
   23       9366.308999999999        -0.000002748360
   24       2219.554000000000        -0.000024180853
   25        719.452900000000        -0.000131685387
   26        273.464500000000        -0.000531648494
   27        114.752300000000        -0.001534098198
   28         51.155570000000        -0.003027560767
   29         23.682680000000        -0.002541519722
   30         10.875480000000         0.003627363880
   31          4.955131000000         0.011815732074
   32          2.217267000000         0.008595196303
   33          0.322154000000        -0.033998167445
   34          0.806410000000         0.059387478294
   35          0.117619000000         0.011691568724
   36          2.691200000000        -0.615329936788
   37         13.832700000000        -0.813360416131
 P 37
    1       9366.308999999999         0.000373928910
    2       2219.554000000000         0.003247286677
    3        719.452900000000         0.017614870917
    4        273.464500000000         0.068424483180
    5        114.752300000000         0.189163839125
    6         51.155570000000         0.340129130001
    7         23.682680000000         0.320490040755
    8         10.875480000000         0.103474993668
    9          4.955131000000         0.004525856645
   10          2.217267000000         0.001550068340
   11          0.322154000000         0.000194344049
   12       9366.308999999999        -0.000024871903
   13       2219.554000000000        -0.000217267637
   14        719.452900000000        -0.001189643343
   15        273.464500000000        -0.004751198564
   16        114.752300000000        -0.013739340187
   17         51.155570000000        -0.026507461500
   18         23.682680000000        -0.023312506554
   19         10.875480000000         0.025850062411
   20          4.955131000000         0.078634038228
   21          2.217267000000         0.056589174460
   22          0.322154000000        -0.000691207524
   23       9366.308999999999        -0.000003614172
   24       2219.554000000000        -0.000031798511
   25        719.452900000000        -0.000173170038
   26        273.464500000000        -0.000699132922
   27        114.752300000000        -0.002017382853
   28         51.155570000000        -0.003981328696
   29         23.682680000000        -0.003342170868
   30         10.875480000000         0.004770086884
   31          4.955131000000         0.015538024431
   32          2.217267000000         0.011302928105
   33          0.322154000000        -0.044708559152
   34          0.806410000000         0.082347464863
   35          0.117619000000         0.013663961714
   36          2.691200000000        -0.306617245375
   37         13.832700000000        -1.448372927850
 P 37
    1       9366.308999999999         0.000601261547
    2       2219.554000000000         0.005221496815
    3        719.452900000000         0.028323952131
    4        273.464500000000         0.110023615572
    5        114.752300000000         0.304167288502
    6         51.155570000000         0.546912960171
    7         23.682680000000         0.515334152338
    8         10.875480000000         0.166383323564
    9          4.955131000000         0.007277382138
   10          2.217267000000         0.002492442986
   11          0.322154000000         0.000312496843
   12       9366.308999999999        -0.000335531590
   13       2219.554000000000        -0.002931024502
   14        719.452900000000        -0.016048749066
   15        273.464500000000        -0.064095507246
   16        114.752300000000        -0.185349015959
   17         51.155570000000        -0.357595913473
   18         23.682680000000        -0.314494734871
   19         10.875480000000         0.348727345361
   20          4.955131000000         1.060803605432
   21          2.217267000000         0.763409862299
   22          0.322154000000        -0.009324656983
   23       9366.308999999999         0.000002148636
   24       2219.554000000000         0.000018904304
   25        719.452900000000         0.000102950072
   26        273.464500000000         0.000415636480
   27        114.752300000000         0.001199339757
   28         51.155570000000         0.002366911062
   29         23.682680000000         0.001986929944
   30         10.875480000000        -0.002835830015
   31          4.955131000000        -0.009237399050
   32          2.217267000000        -0.006719622421
   33          0.322154000000         0.026579363656
   34          0.806410000000        -0.056200579047
   35          0.117619000000        -0.004461705340
   36          2.691200000000        -0.410067718076
   37         13.832700000000        -1.829809319334
 P 37
    1       9366.308999999999         0.001043351989
    2       2219.554000000000         0.009060714284
    3        719.452900000000         0.049149745130
    4        273.464500000000         0.190920837551
    5        114.752300000000         0.527812807956
    6         51.155570000000         0.949042438578
    7         23.682680000000         0.894244635316
    8         10.875480000000         0.288720229055
    9          4.955131000000         0.012628233363
   10          2.217267000000         0.004325065123
   11          0.322154000000         0.000542266846
   12       9366.308999999999        -0.000804807073
   13       2219.554000000000        -0.007030364110
   14        719.452900000000        -0.038494577366
   15        273.464500000000        -0.153739674810
   16        114.752300000000        -0.444578702378
   17         51.155570000000        -0.857730624386
   18         23.682680000000        -0.754348008866
   19         10.875480000000         0.836458450466
   20          4.955131000000         2.544446691239
   21          2.217267000000         1.831117172152
   22          0.322154000000        -0.022366150046
   23       9366.308999999999         0.000029492353
   24       2219.554000000000         0.000259482077
   25        719.452900000000         0.001413101420
   26        273.464500000000         0.005705061553
   27        114.752300000000         0.016462239150
   28         51.155570000000         0.032488421834
   29         23.682680000000         0.027272768793
   30         10.875480000000        -0.038924843115
   31          4.955131000000        -0.126793322211
   32          2.217267000000        -0.092234106825
   33          0.322154000000         0.364830598090
   34          0.806410000000        -1.070262886843
   35          0.117619000000        -0.088706334498
   36          2.691200000000        -3.147883505973
   37         13.832700000000        -2.200074728480
 P 37
    1       9366.308999999999         0.001324664726
    2       2219.554000000000         0.011503700311
    3        719.452900000000         0.062401696005
    4        273.464500000000         0.242397677431
    5        114.752300000000         0.670123808423
    6         51.155570000000         1.204927056919
    7         23.682680000000         1.135354450757
    8         10.875480000000         0.366566132058
    9          4.955131000000         0.016033108154
   10          2.217267000000         0.005491206481
   11          0.322154000000         0.000688475002
   12       9366.308999999999        -0.001074847099
   13       2219.554000000000        -0.009389289340
   14        719.452900000000        -0.051410811630
   15        273.464500000000        -0.205324541856
   16        114.752300000000        -0.593749911970
   17         51.155570000000        -1.145528294539
   18         23.682680000000        -1.007457310626
   19         10.875480000000         1.117118585921
   20          4.955131000000         3.398194719755
   21          2.217267000000         2.445518991255
   22          0.322154000000        -0.029870750780
   23       9366.308999999999         0.000028943042
   24       2219.554000000000         0.000254649080
   25        719.452900000000         0.001386781623
   26        273.464500000000         0.005598801624
   27        114.752300000000         0.016155620832
   28         51.155570000000         0.031883306991
   29         23.682680000000         0.026764798376
   30         10.875480000000        -0.038199846363
   31          4.955131000000        -0.124431726392
   32          2.217267000000        -0.090516195524
   33          0.322154000000         0.358035426228
   34          0.806410000000         0.950270675476
   35          0.117619000000        -0.080010287020
   36          2.691200000000        -5.808544870076
   37         13.832700000000        -2.407493978218
 P 37
    1       9366.308999999999         0.000755024061
    2       2219.554000000000         0.006556806683
    3        719.452900000000         0.035567325845
    4        273.464500000000         0.138160302192
    5        114.752300000000         0.381952949629
    6         51.155570000000         0.686776738407
    7         23.682680000000         0.647122182334
    8         10.875480000000         0.208933056271
    9          4.955131000000         0.009138450051
   10          2.217267000000         0.003129843301
   11          0.322154000000         0.000392412647
   12       9366.308999999999        -0.000427157373
   13       2219.554000000000        -0.003731418331
   14        719.452900000000        -0.020431284839
   15        273.464500000000        -0.081598482230
   16        114.752300000000        -0.235963471306
   17         51.155570000000        -0.455246943889
   18         23.682680000000        -0.400375847500
   19         10.875480000000         0.443956578486
   20          4.955131000000         1.350484111378
   21          2.217267000000         0.971879134107
   22          0.322154000000        -0.011871001414
   23       9366.308999999999        -0.000171232897
   24       2219.554000000000        -0.001506555534
   25        719.452900000000        -0.008204480964
   26        273.464500000000        -0.033123644395
   27        114.752300000000        -0.095579925028
   28         51.155570000000        -0.188628101855
   29         23.682680000000        -0.158345968178
   30         10.875480000000         0.225998028139
   31          4.955131000000         0.736163295926
   32          2.217267000000         0.535512146008
   33          0.322154000000        -2.118210098609
   34          0.806410000000         2.293506512916
   35          0.117619000000         0.264064421525
   36          2.691200000000        -4.149048007962
   37         13.832700000000        -1.389033973493
 P 37
    1       9366.308999999999         0.000205317586
    2       2219.554000000000         0.001783026247
    3        719.452900000000         0.009672006299
    4        273.464500000000         0.037570643316
    5        114.752300000000         0.103866434904
    6         51.155570000000         0.186758739428
    7         23.682680000000         0.175975271541
    8         10.875480000000         0.056816243230
    9          4.955131000000         0.002485065839
   10          2.217267000000         0.000851114426
   11          0.322154000000         0.000106710794
   12       9366.308999999999         0.000002832716
   13       2219.554000000000         0.000024745093
   14        719.452900000000         0.000135491117
   15        273.464500000000         0.000541124536
   16        114.752300000000         0.001564803910
   17         51.155570000000         0.003018993549
   18         23.682680000000         0.002655113048
   19         10.875480000000        -0.002944120910
   20          4.955131000000        -0.008955804922
   21          2.217267000000        -0.006445066521
   22          0.322154000000         0.000078723157
   23       9366.308999999999        -0.000161884908
   24       2219.554000000000        -0.001424309279
   25        719.452900000000        -0.007756579896
   26        273.464500000000        -0.031315350148
   27        114.752300000000        -0.090362001951
   28         51.155570000000        -0.178330469528
   29         23.682680000000        -0.149701505636
   30         10.875480000000         0.213660287487
   31          4.955131000000         0.695974485886
   32          2.217267000000         0.506277333529
   33          0.322154000000        -2.002572245227
   34          0.806410000000         1.208262619112
   35          0.117619000000         1.754920103843
   36          2.691200000000        -1.442704049125
   37         13.832700000000        -0.422821720240
 D 11
    1        446.161300000000         0.004414404332
    2        133.964800000000         0.038258275653
    3         51.345910000000         0.177254804649
    4         21.916910000000         0.526946728445
    5          9.893725000000         0.998731633689
    6          4.492527000000         1.217276395120
    7          2.002293000000         0.857485154094
    8          0.808409000000        -0.158226824892
    9          0.300600000000         0.041871927624
   10          2.793800000000        -1.374327951713
   11          7.471600000000        -1.176584320342
 D 11
    1        446.161300000000         0.003590266796
    2        133.964800000000         0.031115730778
    3         51.345910000000         0.144162607604
    4         21.916910000000         0.428569564541
    5          9.893725000000         0.812275621496
    6          4.492527000000         0.990019647948
    7          2.002293000000         0.697398843664
    8          0.808409000000        -0.076055581286
    9          0.300600000000         0.014832691291
   10          2.793800000000        -1.656924213523
   11          7.471600000000        -1.838397693369
 D 11
    1        446.161300000000         0.003095420602
    2        133.964800000000         0.026827052024
    3         51.345910000000         0.124292686608
    4         21.916910000000         0.369499854784
    5          9.893725000000         0.700319735745
    6          4.492527000000         0.853565316851
    7          2.002293000000         0.601276415269
    8          0.808409000000         0.414274870845
    9          0.300600000000        -0.095222267088
   10          2.793800000000        -0.109641963147
   11          7.471600000000        -2.205802812428
 D 11
    1        446.161300000000         0.002251337868
    2        133.964800000000         0.019511648291
    3         51.345910000000         0.090399615433
    4         21.916910000000         0.268741835795
    5          9.893725000000         0.509351245991
    6          4.492527000000         0.620808661362
    7          2.002293000000         0.437315808295
    8          0.808409000000        -1.269070059703
    9          0.300600000000         0.035392443759
   10          2.793800000000         0.690811225332
   11          7.471600000000        -1.806495973187
 D 11
    1        446.161300000000         0.000813469420
    2        133.964800000000         0.007050087611
    3         51.345910000000         0.032663832358
    4         21.916910000000         0.097103712556
    5          9.893725000000         0.184042416895
    6          4.492527000000         0.224315003381
    7          2.002293000000         0.158014059921
    8          0.808409000000        -1.195490319459
    9          0.300600000000         1.425555652837
   10          2.793800000000         0.416552052480
   11          7.471600000000        -0.686572336427
 F 3
    1          0.662200000000        -0.003839044041
    2          3.951800000000         0.481915960737
    3         11.866400000000         0.660210078251
 F 3
    1          0.662200000000        -0.296605474127
    2          3.951800000000        -0.947968724817
    3         11.866400000000         0.895098750863
 F 3
    1          0.662200000000         0.981925410501
    2          3.951800000000        -0.562341649778
    3         11.866400000000         0.389524441334
 G 1
    1          8.899500000000         1.000000000000
 end
  // -----------------------------------------------
  // The basis set
  // -----------------------------------------------
  BAS[ATNO] = new BFNGauss[NSH];
  // Basis function   1 L = s
  InitBFNGauss(BAS[ATNO][  0]);
  BAS[ATNO][  0].l  = 0;
  BAS[ATNO][  0].ng = 76;
  BAS[ATNO][  0].a[  0] =  11718110.000000000000;     BAS[ATNO][  0].d[  0] =        -0.000005814040;
  BAS[ATNO][  0].a[  1] =   1754604.000000000000;     BAS[ATNO][  0].d[  1] =        -0.000045474095;
  BAS[ATNO][  0].a[  2] =    399281.299999999988;     BAS[ATNO][  0].d[  2] =        -0.000239310021;
  BAS[ATNO][  0].a[  3] =    113084.600000000006;     BAS[ATNO][  0].d[  3] =        -0.001010500840;
[...]
  BAS[ATNO][ 12].a[ 28] =        23.682680000000;     BAS[ATNO][ 12].d[ 28] =        -0.026764798376;
  BAS[ATNO][ 12].a[ 29] =        10.875480000000;     BAS[ATNO][ 12].d[ 29] =         0.038199846363;
  BAS[ATNO][ 12].a[ 30] =         4.955131000000;     BAS[ATNO][ 12].d[ 30] =         0.124431726392;
  BAS[ATNO][ 12].a[ 31] =         2.217267000000;     BAS[ATNO][ 12].d[ 31] =         0.090516195524;
  BAS[ATNO][ 12].a[ 32] =         0.322154000000;     BAS[ATNO][ 12].d[ 32] =        -0.358035426228;
  BAS[ATNO][ 12].a[ 33] =         0.806410000000;     BAS[ATNO][ 12].d[ 33] =        -0.950270675476;
  BAS[ATNO][ 12].a[ 34] =         0.117619000000;     BAS[ATNO][ 12].d[ 34] =         0.080010287020;
  BAS[ATNO][ 12].a[ 35] =         2.691200000000;     BAS[ATNO][ 12].d[ 35] =         5.808544870076;
  BAS[ATNO][ 12].a[ 36] =        13.832700000000;     BAS[ATNO][ 12].d[ 36] =         2.407493978218;

  // Basis function  14 L = p
  InitBFNGauss(BAS[ATNO][ 13]);
  BAS[ATNO][ 13].l  = 1;
  BAS[ATNO][ 13].ng = 37;
  BAS[ATNO][ 13].a[  0] =      9366.308999999999;     BAS[ATNO][ 13].d[  0] =        -0.000755024061;
  BAS[ATNO][ 13].a[  1] =      2219.554000000000;     BAS[ATNO][ 13].d[  1] =        -0.006556806683;
  BAS[ATNO][ 13].a[  2] =       719.452900000000;     BAS[ATNO][ 13].d[  2] =        -0.035567325845;
  BAS[ATNO][ 13].a[  3] =       273.464500000000;     BAS[ATNO][ 13].d[  3] =        -0.138160302192;
  BAS[ATNO][ 13].a[  4] =       114.752300000000;     BAS[ATNO][ 13].d[  4] =        -0.381952949629;
  BAS[ATNO][ 13].a[  5] =        51.155570000000;     BAS[ATNO][ 13].d[  5] =        -0.686776738407;
  BAS[ATNO][ 13].a[  6] =        23.682680000000;     BAS[ATNO][ 13].d[  6] =        -0.647122182334;
  BAS[ATNO][ 13].a[  7] =        10.875480000000;     BAS[ATNO][ 13].d[  7] =        -0.208933056271;
  BAS[ATNO][ 13].a[  8] =         4.955131000000;     BAS[ATNO][ 13].d[  8] =        -0.009138450051;
  BAS[ATNO][ 13].a[  9] =         2.217267000000;     BAS[ATNO][ 13].d[  9] =        -0.003129843301;
  BAS[ATNO][ 13].a[ 10] =         0.322154000000;     BAS[ATNO][ 13].d[ 10] =        -0.000392412647;
  BAS[ATNO][ 13].a[ 11] =      9366.308999999999;     BAS[ATNO][ 13].d[ 11] =         0.000427157373;
  BAS[ATNO][ 13].a[ 12] =      2219.554000000000;     BAS[ATNO][ 13].d[ 12] =         0.003731418331;
  BAS[ATNO][ 13].a[ 13] =       719.452900000000;     BAS[ATNO][ 13].d[ 13] =         0.020431284839;
  BAS[ATNO][ 13].a[ 14] =       273.464500000000;     BAS[ATNO][ 13].d[ 14] =         0.081598482230;
  BAS[ATNO][ 13].a[ 15] =       114.752300000000;     BAS[ATNO][ 13].d[ 15] =         0.235963471306;
  BAS[ATNO][ 13].a[ 16] =        51.155570000000;     BAS[ATNO][ 13].d[ 16] =         0.455246943889;
  BAS[ATNO][ 13].a[ 17] =        23.682680000000;     BAS[ATNO][ 13].d[ 17] =         0.400375847500;
  BAS[ATNO][ 13].a[ 18] =        10.875480000000;     BAS[ATNO][ 13].d[ 18] =        -0.443956578486;
  BAS[ATNO][ 13].a[ 19] =         4.955131000000;     BAS[ATNO][ 13].d[ 19] =        -1.350484111378;
  BAS[ATNO][ 13].a[ 20] =         2.217267000000;     BAS[ATNO][ 13].d[ 20] =        -0.971879134107;
  BAS[ATNO][ 13].a[ 21] =         0.322154000000;     BAS[ATNO][ 13].d[ 21] =         0.011871001414;
  BAS[ATNO][ 13].a[ 22] =      9366.308999999999;     BAS[ATNO][ 13].d[ 22] =         0.000171232897;
  BAS[ATNO][ 13].a[ 23] =      2219.554000000000;     BAS[ATNO][ 13].d[ 23] =         0.001506555534;
  BAS[ATNO][ 13].a[ 24] =       719.452900000000;     BAS[ATNO][ 13].d[ 24] =         0.008204480964;
  BAS[ATNO][ 13].a[ 25] =       273.464500000000;     BAS[ATNO][ 13].d[ 25] =         0.033123644395;
  BAS[ATNO][ 13].a[ 26] =       114.752300000000;     BAS[ATNO][ 13].d[ 26] =         0.095579925028;
  BAS[ATNO][ 13].a[ 27] =        51.155570000000;     BAS[ATNO][ 13].d[ 27] =         0.188628101855;
  BAS[ATNO][ 13].a[ 28] =        23.682680000000;     BAS[ATNO][ 13].d[ 28] =         0.158345968178;
  BAS[ATNO][ 13].a[ 29] =        10.875480000000;     BAS[ATNO][ 13].d[ 29] =        -0.225998028139;
  BAS[ATNO][ 13].a[ 30] =         4.955131000000;     BAS[ATNO][ 13].d[ 30] =        -0.736163295926;
  BAS[ATNO][ 13].a[ 31] =         2.217267000000;     BAS[ATNO][ 13].d[ 31] =        -0.535512146008;
  BAS[ATNO][ 13].a[ 32] =         0.322154000000;     BAS[ATNO][ 13].d[ 32] =         2.118210098609;
  BAS[ATNO][ 13].a[ 33] =         0.806410000000;     BAS[ATNO][ 13].d[ 33] =        -2.293506512916;
  BAS[ATNO][ 13].a[ 34] =         0.117619000000;     BAS[ATNO][ 13].d[ 34] =        -0.264064421525;
  BAS[ATNO][ 13].a[ 35] =         2.691200000000;     BAS[ATNO][ 13].d[ 35] =         4.149048007962;
  BAS[ATNO][ 13].a[ 36] =        13.832700000000;     BAS[ATNO][ 13].d[ 36] =         1.389033973493;

  // Basis function  15 L = p
  InitBFNGauss(BAS[ATNO][ 14]);
  BAS[ATNO][ 14].l  = 1;
  BAS[ATNO][ 14].ng = 37;
  BAS[ATNO][ 14].a[  0] =      9366.308999999999;     BAS[ATNO][ 14].d[  0] =        -0.000205317586;
  BAS[ATNO][ 14].a[  1] =      2219.554000000000;     BAS[ATNO][ 14].d[  1] =        -0.001783026247;
  BAS[ATNO][ 14].a[  2] =       719.452900000000;     BAS[ATNO][ 14].d[  2] =        -0.009672006299;
  BAS[ATNO][ 14].a[  3] =       273.464500000000;     BAS[ATNO][ 14].d[  3] =        -0.037570643316;
  BAS[ATNO][ 14].a[  4] =       114.752300000000;     BAS[ATNO][ 14].d[  4] =        -0.103866434904;
  BAS[ATNO][ 14].a[  5] =        51.155570000000;     BAS[ATNO][ 14].d[  5] =        -0.186758739428;
  BAS[ATNO][ 14].a[  6] =        23.682680000000;     BAS[ATNO][ 14].d[  6] =        -0.175975271541;
  BAS[ATNO][ 14].a[  7] =        10.875480000000;     BAS[ATNO][ 14].d[  7] =        -0.056816243230;
  BAS[ATNO][ 14].a[  8] =         4.955131000000;     BAS[ATNO][ 14].d[  8] =        -0.002485065839;
  BAS[ATNO][ 14].a[  9] =         2.217267000000;     BAS[ATNO][ 14].d[  9] =        -0.000851114426;
  BAS[ATNO][ 14].a[ 10] =         0.322154000000;     BAS[ATNO][ 14].d[ 10] =        -0.000106710794;
  BAS[ATNO][ 14].a[ 11] =      9366.308999999999;     BAS[ATNO][ 14].d[ 11] =        -0.000002832716;
  BAS[ATNO][ 14].a[ 12] =      2219.554000000000;     BAS[ATNO][ 14].d[ 12] =        -0.000024745093;
  BAS[ATNO][ 14].a[ 13] =       719.452900000000;     BAS[ATNO][ 14].d[ 13] =        -0.000135491117;
  BAS[ATNO][ 14].a[ 14] =       273.464500000000;     BAS[ATNO][ 14].d[ 14] =        -0.000541124536;
  BAS[ATNO][ 14].a[ 15] =       114.752300000000;     BAS[ATNO][ 14].d[ 15] =        -0.001564803910;
  BAS[ATNO][ 14].a[ 16] =        51.155570000000;     BAS[ATNO][ 14].d[ 16] =        -0.003018993549;
  BAS[ATNO][ 14].a[ 17] =        23.682680000000;     BAS[ATNO][ 14].d[ 17] =        -0.002655113048;
  BAS[ATNO][ 14].a[ 18] =        10.875480000000;     BAS[ATNO][ 14].d[ 18] =         0.002944120910;
  BAS[ATNO][ 14].a[ 19] =         4.955131000000;     BAS[ATNO][ 14].d[ 19] =         0.008955804922;
  BAS[ATNO][ 14].a[ 20] =         2.217267000000;     BAS[ATNO][ 14].d[ 20] =         0.006445066521;
  BAS[ATNO][ 14].a[ 21] =         0.322154000000;     BAS[ATNO][ 14].d[ 21] =        -0.000078723157;
  BAS[ATNO][ 14].a[ 22] =      9366.308999999999;     BAS[ATNO][ 14].d[ 22] =         0.000161884908;
  BAS[ATNO][ 14].a[ 23] =      2219.554000000000;     BAS[ATNO][ 14].d[ 23] =         0.001424309279;
  BAS[ATNO][ 14].a[ 24] =       719.452900000000;     BAS[ATNO][ 14].d[ 24] =         0.007756579896;
  BAS[ATNO][ 14].a[ 25] =       273.464500000000;     BAS[ATNO][ 14].d[ 25] =         0.031315350148;
  BAS[ATNO][ 14].a[ 26] =       114.752300000000;     BAS[ATNO][ 14].d[ 26] =         0.090362001951;
  BAS[ATNO][ 14].a[ 27] =        51.155570000000;     BAS[ATNO][ 14].d[ 27] =         0.178330469528;
  BAS[ATNO][ 14].a[ 28] =        23.682680000000;     BAS[ATNO][ 14].d[ 28] =         0.149701505636;
  BAS[ATNO][ 14].a[ 29] =        10.875480000000;     BAS[ATNO][ 14].d[ 29] =        -0.213660287487;
  BAS[ATNO][ 14].a[ 30] =         4.955131000000;     BAS[ATNO][ 14].d[ 30] =        -0.695974485886;
  BAS[ATNO][ 14].a[ 31] =         2.217267000000;     BAS[ATNO][ 14].d[ 31] =        -0.506277333529;
  BAS[ATNO][ 14].a[ 32] =         0.322154000000;     BAS[ATNO][ 14].d[ 32] =         2.002572245227;
  BAS[ATNO][ 14].a[ 33] =         0.806410000000;     BAS[ATNO][ 14].d[ 33] =        -1.208262619112;
  BAS[ATNO][ 14].a[ 34] =         0.117619000000;     BAS[ATNO][ 14].d[ 34] =        -1.754920103843;
  BAS[ATNO][ 14].a[ 35] =         2.691200000000;     BAS[ATNO][ 14].d[ 35] =         1.442704049125;
  BAS[ATNO][ 14].a[ 36] =        13.832700000000;     BAS[ATNO][ 14].d[ 36] =         0.422821720240;

  // Basis function  16 L = d
  InitBFNGauss(BAS[ATNO][ 15]);
  BAS[ATNO][ 15].l  = 2;
  BAS[ATNO][ 15].ng = 11;
  BAS[ATNO][ 15].a[  0] =       446.161300000000;     BAS[ATNO][ 15].d[  0] =        -0.004414404332;
  BAS[ATNO][ 15].a[  1] =       133.964800000000;     BAS[ATNO][ 15].d[  1] =        -0.038258275653;
  BAS[ATNO][ 15].a[  2] =        51.345910000000;     BAS[ATNO][ 15].d[  2] =        -0.177254804649;
  BAS[ATNO][ 15].a[  3] =        21.916910000000;     BAS[ATNO][ 15].d[  3] =        -0.526946728445;
  BAS[ATNO][ 15].a[  4] =         9.893725000000;     BAS[ATNO][ 15].d[  4] =        -0.998731633689;
  BAS[ATNO][ 15].a[  5] =         4.492527000000;     BAS[ATNO][ 15].d[  5] =        -1.217276395120;
  BAS[ATNO][ 15].a[  6] =         2.002293000000;     BAS[ATNO][ 15].d[  6] =        -0.857485154094;
  BAS[ATNO][ 15].a[  7] =         0.808409000000;     BAS[ATNO][ 15].d[  7] =         0.158226824892;
  BAS[ATNO][ 15].a[  8] =         0.300600000000;     BAS[ATNO][ 15].d[  8] =        -0.041871927624;
  BAS[ATNO][ 15].a[  9] =         2.793800000000;     BAS[ATNO][ 15].d[  9] =         1.374327951713;
  BAS[ATNO][ 15].a[ 10] =         7.471600000000;     BAS[ATNO][ 15].d[ 10] =         1.176584320342;

  // Basis function  17 L = d
  InitBFNGauss(BAS[ATNO][ 16]);
  BAS[ATNO][ 16].l  = 2;
  BAS[ATNO][ 16].ng = 11;
  BAS[ATNO][ 16].a[  0] =       446.161300000000;     BAS[ATNO][ 16].d[  0] =        -0.003590266796;
  BAS[ATNO][ 16].a[  1] =       133.964800000000;     BAS[ATNO][ 16].d[  1] =        -0.031115730778;
  BAS[ATNO][ 16].a[  2] =        51.345910000000;     BAS[ATNO][ 16].d[  2] =        -0.144162607604;
  BAS[ATNO][ 16].a[  3] =        21.916910000000;     BAS[ATNO][ 16].d[  3] =        -0.428569564541;
  BAS[ATNO][ 16].a[  4] =         9.893725000000;     BAS[ATNO][ 16].d[  4] =        -0.812275621496;
  BAS[ATNO][ 16].a[  5] =         4.492527000000;     BAS[ATNO][ 16].d[  5] =        -0.990019647948;
  BAS[ATNO][ 16].a[  6] =         2.002293000000;     BAS[ATNO][ 16].d[  6] =        -0.697398843664;
  BAS[ATNO][ 16].a[  7] =         0.808409000000;     BAS[ATNO][ 16].d[  7] =         0.076055581286;
  BAS[ATNO][ 16].a[  8] =         0.300600000000;     BAS[ATNO][ 16].d[  8] =        -0.014832691291;
  BAS[ATNO][ 16].a[  9] =         2.793800000000;     BAS[ATNO][ 16].d[  9] =         1.656924213523;
  BAS[ATNO][ 16].a[ 10] =         7.471600000000;     BAS[ATNO][ 16].d[ 10] =         1.838397693369;

  // Basis function  18 L = d
  InitBFNGauss(BAS[ATNO][ 17]);
  BAS[ATNO][ 17].l  = 2;
  BAS[ATNO][ 17].ng = 11;
  BAS[ATNO][ 17].a[  0] =       446.161300000000;     BAS[ATNO][ 17].d[  0] =        -0.003095420602;
  BAS[ATNO][ 17].a[  1] =       133.964800000000;     BAS[ATNO][ 17].d[  1] =        -0.026827052024;
  BAS[ATNO][ 17].a[  2] =        51.345910000000;     BAS[ATNO][ 17].d[  2] =        -0.124292686608;
  BAS[ATNO][ 17].a[  3] =        21.916910000000;     BAS[ATNO][ 17].d[  3] =        -0.369499854784;
  BAS[ATNO][ 17].a[  4] =         9.893725000000;     BAS[ATNO][ 17].d[  4] =        -0.700319735745;
  BAS[ATNO][ 17].a[  5] =         4.492527000000;     BAS[ATNO][ 17].d[  5] =        -0.853565316851;
  BAS[ATNO][ 17].a[  6] =         2.002293000000;     BAS[ATNO][ 17].d[  6] =        -0.601276415269;
  BAS[ATNO][ 17].a[  7] =         0.808409000000;     BAS[ATNO][ 17].d[  7] =        -0.414274870845;
  BAS[ATNO][ 17].a[  8] =         0.300600000000;     BAS[ATNO][ 17].d[  8] =         0.095222267088;
  BAS[ATNO][ 17].a[  9] =         2.793800000000;     BAS[ATNO][ 17].d[  9] =         0.109641963147;
  BAS[ATNO][ 17].a[ 10] =         7.471600000000;     BAS[ATNO][ 17].d[ 10] =         2.205802812428;

  // Basis function  19 L = d
  InitBFNGauss(BAS[ATNO][ 18]);
  BAS[ATNO][ 18].l  = 2;
  BAS[ATNO][ 18].ng = 11;
  BAS[ATNO][ 18].a[  0] =       446.161300000000;     BAS[ATNO][ 18].d[  0] =        -0.002251337868;
  BAS[ATNO][ 18].a[  1] =       133.964800000000;     BAS[ATNO][ 18].d[  1] =        -0.019511648291;
  BAS[ATNO][ 18].a[  2] =        51.345910000000;     BAS[ATNO][ 18].d[  2] =        -0.090399615433;
  BAS[ATNO][ 18].a[  3] =        21.916910000000;     BAS[ATNO][ 18].d[  3] =        -0.268741835795;
  BAS[ATNO][ 18].a[  4] =         9.893725000000;     BAS[ATNO][ 18].d[  4] =        -0.509351245991;
  BAS[ATNO][ 18].a[  5] =         4.492527000000;     BAS[ATNO][ 18].d[  5] =        -0.620808661362;
  BAS[ATNO][ 18].a[  6] =         2.002293000000;     BAS[ATNO][ 18].d[  6] =        -0.437315808295;
  BAS[ATNO][ 18].a[  7] =         0.808409000000;     BAS[ATNO][ 18].d[  7] =         1.269070059703;
  BAS[ATNO][ 18].a[  8] =         0.300600000000;     BAS[ATNO][ 18].d[  8] =        -0.035392443759;
  BAS[ATNO][ 18].a[  9] =         2.793800000000;     BAS[ATNO][ 18].d[  9] =        -0.690811225332;
  BAS[ATNO][ 18].a[ 10] =         7.471600000000;     BAS[ATNO][ 18].d[ 10] =         1.806495973187;

  // Basis function  20 L = d
  InitBFNGauss(BAS[ATNO][ 19]);
  BAS[ATNO][ 19].l  = 2;
  BAS[ATNO][ 19].ng = 11;
  BAS[ATNO][ 19].a[  0] =       446.161300000000;     BAS[ATNO][ 19].d[  0] =         0.000813469420;
  BAS[ATNO][ 19].a[  1] =       133.964800000000;     BAS[ATNO][ 19].d[  1] =         0.007050087611;
  BAS[ATNO][ 19].a[  2] =        51.345910000000;     BAS[ATNO][ 19].d[  2] =         0.032663832358;
  BAS[ATNO][ 19].a[  3] =        21.916910000000;     BAS[ATNO][ 19].d[  3] =         0.097103712556;
  BAS[ATNO][ 19].a[  4] =         9.893725000000;     BAS[ATNO][ 19].d[  4] =         0.184042416895;
  BAS[ATNO][ 19].a[  5] =         4.492527000000;     BAS[ATNO][ 19].d[  5] =         0.224315003381;
  BAS[ATNO][ 19].a[  6] =         2.002293000000;     BAS[ATNO][ 19].d[  6] =         0.158014059921;
  BAS[ATNO][ 19].a[  7] =         0.808409000000;     BAS[ATNO][ 19].d[  7] =        -1.195490319459;
  BAS[ATNO][ 19].a[  8] =         0.300600000000;     BAS[ATNO][ 19].d[  8] =         1.425555652837;
  BAS[ATNO][ 19].a[  9] =         2.793800000000;     BAS[ATNO][ 19].d[  9] =         0.416552052480;
  BAS[ATNO][ 19].a[ 10] =         7.471600000000;     BAS[ATNO][ 19].d[ 10] =        -0.686572336427;

  // Basis function  21 L = f
  InitBFNGauss(BAS[ATNO][ 20]);
  BAS[ATNO][ 20].l  = 3;
  BAS[ATNO][ 20].ng = 3;
  BAS[ATNO][ 20].a[  0] =         0.662200000000;     BAS[ATNO][ 20].d[  0] =        -0.003839044041;
  BAS[ATNO][ 20].a[  1] =         3.951800000000;     BAS[ATNO][ 20].d[  1] =         0.481915960737;
  BAS[ATNO][ 20].a[  2] =        11.866400000000;     BAS[ATNO][ 20].d[  2] =         0.660210078251;

  // Basis function  22 L = f
  InitBFNGauss(BAS[ATNO][ 21]);
  BAS[ATNO][ 21].l  = 3;
  BAS[ATNO][ 21].ng = 3;
  BAS[ATNO][ 21].a[  0] =         0.662200000000;     BAS[ATNO][ 21].d[  0] =         0.296605474127;
  BAS[ATNO][ 21].a[  1] =         3.951800000000;     BAS[ATNO][ 21].d[  1] =         0.947968724817;
  BAS[ATNO][ 21].a[  2] =        11.866400000000;     BAS[ATNO][ 21].d[  2] =        -0.895098750863;

  // Basis function  23 L = f
  InitBFNGauss(BAS[ATNO][ 22]);
  BAS[ATNO][ 22].l  = 3;
  BAS[ATNO][ 22].ng = 3;
  BAS[ATNO][ 22].a[  0] =         0.662200000000;     BAS[ATNO][ 22].d[  0] =         0.981925410501;
  BAS[ATNO][ 22].a[  1] =         3.951800000000;     BAS[ATNO][ 22].d[  1] =        -0.562341649778;
  BAS[ATNO][ 22].a[  2] =        11.866400000000;     BAS[ATNO][ 22].d[  2] =         0.389524441334;

  // Basis function  24 L = g
  InitBFNGauss(BAS[ATNO][ 23]);
  BAS[ATNO][ 23].l  = 4;
  BAS[ATNO][ 23].ng = 1;
  BAS[ATNO][ 23].a[  0] =         8.899500000000;     BAS[ATNO][ 23].d[  0] =         1.000000000000;

-------
TIMINGS
-------

Total SCF time: 0 days 0 hours 0 min 4 sec 

Total time                  ....       4.272 sec
Sum of individual times     ....       3.971 sec  ( 93.0%)

Fock matrix formation       ....       3.165 sec  ( 74.1%)
  XC integration            ....       0.032 sec  (  1.0% of F)
    Basis function eval.    ....       0.009 sec  ( 27.1% of XC)
    Density eval.           ....       0.002 sec  (  6.1% of XC)
    XC-Functional eval.     ....       0.001 sec  (  4.6% of XC)
    XC-Potential eval.      ....       0.004 sec  ( 11.4% of XC)
Diagonalization             ....       0.001 sec  (  0.0%)
Density matrix formation    ....       0.001 sec  (  0.0%)
Population analysis         ....       0.001 sec  (  0.0%)
Initial guess               ....       0.088 sec  (  2.0%)
Orbital Transformation      ....       0.000 sec  (  0.0%)
Orbital Orthonormalization  ....       0.000 sec  (  0.0%)
DIIS solution               ....       0.000 sec  (  0.0%)
SOSCF solution              ....       0.001 sec  (  0.0%)
Grid generation             ....       0.714 sec  ( 16.7%)

-------------------------   --------------------
FINAL SINGLE POINT ENERGY     -1697.824663699762
-------------------------   --------------------


                            ***************************************
                            *     ORCA property calculations      *
                            ***************************************

                                    ---------------------
                                    Active property flags
                                    ---------------------
   (+) Dipole Moment


------------------------------------------------------------------------------
                       ORCA ELECTRIC PROPERTIES CALCULATION
------------------------------------------------------------------------------

Dipole Moment Calculation                       ... on
Quadrupole Moment Calculation                   ... off
Polarizability Calculation                      ... off
GBWName                                         ... Kr_cc-pcvtz_34.25899725_.gbw
Electron density file                           ... Kr_cc-pcvtz_34.25899725_.scfp
The origin for moment calculation is the CENTER OF MASS  = ( 0.000000,  0.000000  0.000000)

-------------
DIPOLE MOMENT
-------------
                                X             Y             Z
Electronic contribution:     -0.00000       0.00000       0.00000
Nuclear contribution   :      0.00000       0.00000       0.00000
                        -----------------------------------------
Total Dipole Moment    :     -0.00000       0.00000       0.00000
                        -----------------------------------------
Magnitude (a.u.)       :      0.00000
Magnitude (Debye)      :      0.00000



--------------------
Rotational spectrum 
--------------------
 
Rotational constants in cm-1:     0.000000     0.000000     0.000000 
Rotational constants in MHz :     0.000000     0.000000     0.000000 

 Dipole components along the rotational axes: 
x,y,z [a.u.] :    -0.000000     0.000000     0.000000 
x,y,z [Debye]:    -0.000000     0.000000     0.000000 

 

Timings for individual modules:

Sum of individual times         ...        6.310 sec (=   0.105 min)
GTO integral calculation        ...        1.266 sec (=   0.021 min)  20.1 %
Relativistic integrals          ...        0.496 sec (=   0.008 min)   7.9 %
SCF iterations                  ...        4.548 sec (=   0.076 min)  72.1 %
                             ****ORCA TERMINATED NORMALLY****
TOTAL RUN TIME: 0 days 0 hours 0 minutes 6 seconds 686 msec
