
                                 *****************
                                 * O   R   C   A *
                                 *****************

           --- An Ab Initio, DFT and Semiempirical electronic structure package ---

                  #######################################################
                  #                        -***-                        #
                  #          Department of theory and spectroscopy      #
                  #               Directorship: Frank Neese             #
                  #        Max Planck Institute fuer Kohlenforschung    #
                  #                Kaiser Wilhelm Platz 1               #
                  #                 D-45470 Muelheim/Ruhr               #
                  #                      Germany                        #
                  #                                                     #
                  #                  All rights reserved                #
                  #                        -***-                        #
                  #######################################################


                         Program Version 4.2.1 -  RELEASE  -


 With contributions from (in alphabetic order):
   Daniel Aravena         : Magnetic Suceptibility
   Michael Atanasov       : Ab Initio Ligand Field Theory (pilot matlab implementation)
   Alexander A. Auer      : GIAO ZORA, VPT2
   Ute Becker             : Parallelization
   Giovanni Bistoni       : ED, misc. LED, open-shell LED, HFLD
   Martin Brehm           : Molecular dynamics
   Dmytro Bykov           : SCF Hessian
   Vijay G. Chilkuri      : MRCI spin determinant printing, contributions to CSF-ICE
   Dipayan Datta          : RHF DLPNO-CCSD density
   Achintya Kumar Dutta   : EOM-CC, STEOM-CC
   Dmitry Ganyushin       : Spin-Orbit,Spin-Spin,Magnetic field MRCI
   Miquel Garcia          : C-PCM Hessian, Gaussian charge scheme
   Yang Guo               : DLPNO-NEVPT2, CIM, IAO-localization
   Andreas Hansen         : Spin unrestricted coupled pair/coupled cluster methods
   Benjamin Helmich-Paris : CASSCF linear response (MC-RPA)
   Lee Huntington         : MR-EOM, pCC
   Robert Izsak           : Overlap fitted RIJCOSX, COSX-SCS-MP3, EOM
   Christian Kollmar      : KDIIS, OOCD, Brueckner-CCSD(T), CCSD density
   Simone Kossmann        : Meta GGA functionals, TD-DFT gradient, OOMP2, MP2 Hessian
   Martin Krupicka        : AUTO-CI
   Lucas Lang             : DCDCAS
   Dagmar Lenk            : GEPOL surface, SMD
   Dimitrios Liakos       : Extrapolation schemes; Compound Job, initial MDCI parallelization
   Dimitrios Manganas     : Further ROCIS development; embedding schemes
   Dimitrios Pantazis     : SARC Basis sets
   Taras Petrenko         : DFT Hessian,TD-DFT gradient, ASA, ECA, R-Raman, ABS, FL, XAS/XES, NRVS
   Peter Pinski           : DLPNO-MP2, DLPNO-MP2 Gradient
   Christoph Reimann      : Effective Core Potentials
   Marius Retegan         : Local ZFS, SOC
   Christoph Riplinger    : Optimizer, TS searches, QM/MM, DLPNO-CCSD(T), (RO)-DLPNO pert. Triples
   Tobias Risthaus        : Range-separated hybrids, TD-DFT gradient, RPA, STAB
   Michael Roemelt        : Original ROCIS implementation
   Masaaki Saitow         : Open-shell DLPNO-CCSD energy and density
   Barbara Sandhoefer     : DKH picture change effects
   Avijit Sen             : IP-ROCIS
   Kantharuban Sivalingam : CASSCF convergence, NEVPT2, FIC-MRCI
   Bernardo de Souza      : ESD, SOC TD-DFT
   Georgi Stoychev        : AutoAux, RI-MP2 NMR
   Willem Van den Heuvel  : Paramagnetic NMR
   Boris Wezisla          : Elementary symmetry handling
   Frank Wennmohs         : Technical directorship


 We gratefully acknowledge several colleagues who have allowed us to
 interface, adapt or use parts of their codes:
   Stefan Grimme, W. Hujo, H. Kruse,             : VdW corrections, initial TS optimization,
                  C. Bannwarth                     DFT functionals, gCP, sTDA/sTD-DF
   Ed Valeev, F. Pavosevic, A. Kumar             : LibInt (2-el integral package), F12 methods
   Garnet Chan, S. Sharma, J. Yang, R. Olivares  : DMRG
   Ulf Ekstrom                                   : XCFun DFT Library
   Mihaly Kallay                                 : mrcc  (arbitrary order and MRCC methods)
   Andreas Klamt, Michael Diedenhofen            : otool_cosmo (COSMO solvation model)
   Jiri Pittner, Ondrej Demel                    : Mk-CCSD
   Frank Weinhold                                : gennbo (NPA and NBO analysis)
   Christopher J. Cramer and Donald G. Truhlar   : smd solvation model
   Lars Goerigk                                  : TD-DFT with DH, B97 family of functionals
   V. Asgeirsson, H. Jonsson                     : NEB implementation
   FAccTs GmbH                                   : IRC, NEB, NEB-TS, Multilevel, MM, QM/MM, CI optimization
   S Lehtola, MJT Oliveira, MAL Marques          : LibXC Library


 Your calculation uses the libint2 library for the computation of 2-el integrals
 For citations please refer to: http://libint.valeyev.net

 Your ORCA version has been built with support for libXC version: 4.2.3
 For citations please refer to: https://tddft.org/programs/libxc/

 This ORCA versions uses:
   CBLAS   interface :  Fast vector & matrix operations
   LAPACKE interface :  Fast linear algebra routines
   SCALAPACK package :  Parallel linear algebra routines


----- Orbital basis set information -----
Your calculation utilizes the basis: def2-QZVPP
   F. Weigend and R. Ahlrichs, Phys. Chem. Chem. Phys. 7, 3297 (2005).

================================================================================
                                        WARNINGS
                       Please study these warnings very carefully!
================================================================================


INFO   : the flag for use of LIBINT has been found!

================================================================================
                                       INPUT FILE
================================================================================
NAME = Kr_def2-qzvpp_4385.151648_.inp
|  1> ! LDA def2-qzvpp nori grid5 finalgrid6 verytightscf
|  2> %Pal NProcs 18 End
|  3> 
|  4> % REL
|  5>   Method ZORA
|  6>   ModelPot 1, 0, 0, 0
|  7>   velit 4385.151648
|  8> END
|  9> 
| 10> *xyz 34 1
| 11> Kr 0.0 0.0 0.0
| 12> **                         ****END OF INPUT****
================================================================================

                       ****************************
                       * Single Point Calculation *
                       ****************************

---------------------------------
CARTESIAN COORDINATES (ANGSTROEM)
---------------------------------
  Kr     0.000000    0.000000    0.000000

----------------------------
CARTESIAN COORDINATES (A.U.)
----------------------------
  NO LB      ZA    FRAG     MASS         X           Y           Z
   0 Kr   36.0000    0    83.800    0.000000    0.000000    0.000000

--------------------------------
INTERNAL COORDINATES (ANGSTROEM)
--------------------------------
 Kr     0   0   0     0.000000000000     0.00000000     0.00000000

---------------------------
INTERNAL COORDINATES (A.U.)
---------------------------
 Kr     0   0   0     0.000000000000     0.00000000     0.00000000

---------------------
BASIS SET INFORMATION
---------------------
There are 1 groups of distinct atoms

 Group   1 Type Kr  : 24s20p10d4f1g contracted to 11s7p4d4f1g pattern {114111111111/10511111/7111/1111/1}

Atom   0Kr   basis set group =>   1


           ************************************************************
           *        Program running with 18 parallel MPI-processes    *
           *              working on a common directory               *
           ************************************************************
------------------------------------------------------------------------------
                           ORCA GTO INTEGRAL CALCULATION
------------------------------------------------------------------------------

                         BASIS SET STATISTICS AND STARTUP INFO

 # of primitive gaussian shells          ...   59
 # of primitive gaussian functions       ...  171
 # of contracted shells                  ...   27
 # of contracted basis functions         ...   89
 Highest angular momentum                ...    4
 Maximum contraction depth               ...   11
 Integral package used                   ... LIBINT
 Integral threshhold            Thresh   ...  1.000e-12
 Primitive cut-off              TCut     ...  1.000e-14


------------------------------ INTEGRAL EVALUATION ----------------------------


 * One electron integrals 
 Pre-screening matrix                    ... done
 Shell pair data                         ... done (   0.000 sec)



           ************************************************************
           *        Program running with 18 parallel MPI-processes    *
           *              working on a common directory               *
           ************************************************************
------------------------------------------------------------------------------
                          ORCA RELATIVISTIC HAMILTONIAN
------------------------------------------------------------------------------

Relativistic Method            ... ZORA(MP)
Treatment of potential         ... Van Wuellen
Nucleus model                  ... Point Nucleus
Speed of light used            ... 4385.15164800000002


            *************************************************
            *         ZERO ORDER REGULAR APPROXIMATION      *
            *                     ZORA(MP)                  *
            *            Programmed by FN according to      *
            *                   C. van Wuellen              *
            *       J. Chem. Phys. (1998) vol 109, 392-399  *
            *************************************************

Terms included in model potential: +V(e,N)
Basis function cutoff value   ... 1.000000e-12
Loading the fitted atomic densities  (DKH4)  ... done
Calculating the cutoffs                      ... done
Number of fit functions                      ... 27
Setting up the integration grid ... done


           ************************************************************
           *        Program running with 18 parallel MPI-processes    *
           *              working on a common directory               *
           ************************************************************
-------------------------------------------------------------------------------
                                 ORCA SCF
-------------------------------------------------------------------------------

------------
SCF SETTINGS
------------
Hamiltonian:
 Density Functional     Method          .... DFT(GTOs)
 Exchange Functional    Exchange        .... Slater
   X-Alpha parameter    XAlpha          ....  0.666667
 Correlation Functional Correlation     .... VWN-5
 Gradients option       PostSCFGGA      .... off
   Density functional embedding theory  .... OFF

Relativistic Settings:
 Scalar relativistic method             .... ZORA
 Speed of light used       Velit        ....       4385.15165
Orbital energies will be scaled


General Settings:
 Integral files         IntName         .... Kr_def2-qzvpp_4385.151648_
 Hartree-Fock type      HFTyp           .... RHF
 Total Charge           Charge          ....   34
 Multiplicity           Mult            ....    1
 Number of Electrons    NEL             ....    2
 Basis Dimension        Dim             ....   89
 Nuclear Repulsion      ENuc            ....      0.0000000000 Eh

Convergence Acceleration:
 DIIS                   CNVDIIS         .... on
   Start iteration      DIISMaxIt       ....    12
   Startup error        DIISStart       ....  0.200000
   # of expansion vecs  DIISMaxEq       ....     5
   Bias factor          DIISBfac        ....   1.050
   Max. coefficient     DIISMaxC        ....  10.000
 Newton-Raphson         CNVNR           .... off
 SOSCF                  CNVSOSCF        .... on
   Start iteration      SOSCFMaxIt      ....   150
   Startup grad/error   SOSCFStart      ....  0.003300
 Level Shifting         CNVShift        .... on
   Level shift para.    LevelShift      ....    0.2500
   Turn off err/grad.   ShiftErr        ....    0.0010
 Zerner damping         CNVZerner       .... off
 Static damping         CNVDamp         .... on
   Fraction old density DampFac         ....    0.7000
   Max. Damping (<1)    DampMax         ....    0.9800
   Min. Damping (>=0)   DampMin         ....    0.0000
   Turn off err/grad.   DampErr         ....    0.1000
 Fernandez-Rico         CNVRico         .... off

SCF Procedure:
 Maximum # iterations   MaxIter         ....   125
 SCF integral mode      SCFMode         .... Direct
   Integral package                     .... LIBINT
 Reset frequency        DirectResetFreq ....    20
 Integral Threshold     Thresh          ....  1.000e-12 Eh
 Primitive CutOff       TCut            ....  1.000e-14 Eh

Convergence Tolerance:
 Convergence Check Mode ConvCheckMode   .... Total+1el-Energy
 Convergence forced     ConvForced      .... 0
 Energy Change          TolE            ....  1.000e-09 Eh
 1-El. energy change                    ....  1.000e-06 Eh
 Orbital Gradient       TolG            ....  2.000e-06
 Orbital Rotation angle TolX            ....  2.000e-06
 DIIS Error             TolErr          ....  1.000e-08


Diagonalization of the overlap matrix:
Smallest eigenvalue                        ... 6.997e-04
Time for diagonalization                   ...    0.002 sec
Threshold for overlap eigenvalues          ... 1.000e-08
Number of eigenvalues below threshold      ... 0
Time for construction of square roots      ...    0.001 sec
Total time needed                          ...    0.004 sec

-------------------
DFT GRID GENERATION
-------------------

General Integration Accuracy     IntAcc      ...  5.010
Radial Grid Type                 RadialGrid  ... Gauss-Chebyshev
Angular Grid (max. acc.)         AngularGrid ... Lebedev-434
Angular grid pruning method      GridPruning ... 3 (G Style)
Weight generation scheme         WeightScheme... Becke
Basis function cutoff            BFCut       ...    1.0000e-12
Integration weight cutoff        WCut        ...    1.0000e-14
Grids for H and He will be reduced by one unit

# of grid points (after initial pruning)     ...  16106 (   0.0 sec)
# of grid points (after weights+screening)   ...  16106 (   0.0 sec)
Grid point division into batches done        ...    0.2 sec
Reduced shell lists constructed in    0.2 sec

Total number of grid points                  ...    16106
Total number of batches                      ...      252
Average number of points per batch           ...       63
Average number of grid points per atom       ...    16106
Average number of shells per batch           ...     1.47 ( 5.43%)
Average number of basis functions per batch  ...     3.33 ( 3.75%)
Average number of large shells per batch     ...     0.93 (63.64%)
Average number of large basis fcns per batch ...     2.80 (84.00%)
Maximum spatial batch extension              ...  17.34, 17.34, 17.34 au
Average spatial batch extension              ...   0.86,  0.87,  0.87 au

Time for grid setup =    0.257 sec

------------------------------
INITIAL GUESS: MODEL POTENTIAL
------------------------------
Loading ZORA relativistic densities                ... done
Calculating cut-offs                               ... done
Setting up the integral package                    ... done
Initializing the effective Hamiltonian             ... done
Starting the Coulomb interaction                   ... done (   0.0 sec)
Reading the grid                                   ... done
Mapping shells                                     ... done
Starting the XC term evaluation                    ... done (   0.0 sec)
  promolecular density results
     # of electrons  =     36.000000565
     EX              =    -91.042004939
     EC              =     -3.295965580
     EX+EC           =    -94.337970520
Transforming the Hamiltonian                       ... done (   0.0 sec)
Diagonalizing the Hamiltonian                      ... done (   0.0 sec)
Back transforming the eigenvectors                 ... done (   0.0 sec)
Now organizing SCF variables                       ... done
                      ------------------
                      INITIAL GUESS DONE (   0.3 sec)
                      ------------------
--------------
SCF ITERATIONS
--------------
ITER       Energy         Delta-E        Max-DP      RMS-DP      [F,P]     Damp
               ***  Starting incremental Fock matrix formation  ***
  0  -1270.6832692717   0.000000000000 0.00765967  0.00010654  7.3131528 0.7000
  1  -1270.7089399559  -0.025670684191 0.00530807  0.00007404  5.0966801 0.7000
  2  -1270.7267981797  -0.017858223744 0.00367661  0.00005143  3.5513088 0.7000
  3  -1270.7392451273  -0.012446947649 0.00254645  0.00003572  2.4745690 0.7000
  4  -1270.7479319616  -0.008686834270 0.00176361  0.00002482  1.7243236 0.7000
  5  -1270.7540001525  -0.006068190877 0.00122136  0.00001724  1.2015577 0.7000
                      *** Initiating the SOSCF procedure ***
                      *** Re-Reading the Fockian *** 
                      *** Removing any level shift *** 
ITER      Energy       Delta-E        Grad      Rot      Max-DP    RMS-DP
  6  -1270.75824179  -0.0042416402  0.002940  0.002940  0.002819  0.000040
               *** Restarting incremental Fock matrix formation ***
  7  -1270.76811972  -0.0098779246  0.006820  0.000008  0.000071  0.000001
  8  -1270.76811991  -0.0000001894  0.000097  0.000000  0.000001  0.000000
                 **** Energy Check signals convergence ****
              ***Rediagonalizing the Fockian in SOSCF/NRSCF***

               *****************************************************
               *                     SUCCESS                       *
               *           SCF CONVERGED AFTER   9 CYCLES          *
               *****************************************************

Setting up the final grid:

General Integration Accuracy     IntAcc      ...  5.340
Radial Grid Type                 RadialGrid  ... Gauss-Chebyshev
Angular Grid (max. acc.)         AngularGrid ... Lebedev-590
Angular grid pruning method      GridPruning ... 3 (G Style)
Weight generation scheme         WeightScheme... Becke
Basis function cutoff            BFCut       ...    1.0000e-12
Integration weight cutoff        WCut        ...    1.0000e-14
Grids for H and He will be reduced by one unit

# of grid points (after initial pruning)     ...  24180 (   0.0 sec)
# of grid points (after weights+screening)   ...  24180 (   0.0 sec)
Grid point division into batches done        ...    0.4 sec
Reduced shell lists constructed in    0.4 sec

Total number of grid points                  ...    24180
Total number of batches                      ...      378
Average number of points per batch           ...       63
Average number of grid points per atom       ...    24180
Average number of shells per batch           ...     0.27 ( 1.01%)
Average number of basis functions per batch  ...     0.55 ( 0.61%)
Average number of large shells per batch     ...     0.14 (50.00%)
Average number of large basis fcns per batch ...     0.41 (75.00%)
Maximum spatial batch extension              ...  17.58, 17.58, 17.58 au
Average spatial batch extension              ...   0.77,  0.77,  0.77 au

Final grid set up in    0.4 sec
Final integration                            ... done (   0.0 sec)
Change in XC energy                          ...    -0.000060992
Integrated number of electrons               ...     1.999999889
Previous integrated no of electrons          ...     1.999998311

----------------
TOTAL SCF ENERGY
----------------

Total Energy       :        -1270.76818090 Eh          -34579.36018 eV

Components:
Nuclear Repulsion  :            0.00000000 Eh               0.00000 eV
Electronic Energy  :        -1270.76818090 Eh          -34579.36018 eV
One Electron Energy:        -1295.89552047 Eh          -35263.10985 eV
Two Electron Energy:           25.12733957 Eh             683.74967 eV

Virial components:
Potential Energy   :        -2541.34892868 Eh          -69153.62005 eV
Kinetic Energy     :         1270.58074778 Eh           34574.25987 eV
Virial Ratio       :            2.00014752


DFT components:
N(Alpha)           :        0.999999944251 electrons
N(Beta)            :        0.999999944251 electrons
N(Total)           :        1.999999888503 electrons
E(X)               :      -19.084172190946 Eh       
E(C)               :       -0.277971933486 Eh       
E(XC)              :      -19.362144124432 Eh       
DFET-embed. en.    :        0.000000000000 Eh       

---------------
SCF CONVERGENCE
---------------

  Last Energy change         ...   -3.9336e-11  Tolerance :   1.0000e-09
  Last MAX-Density change    ...    0.0000e+00  Tolerance :   1.0000e-08
  Last RMS-Density change    ...    0.0000e+00  Tolerance :   1.0000e-09
  Last Orbital Gradient      ...    5.8472e-10  Tolerance :   2.0000e-06
  Last Orbital Rotation      ...    0.0000e+00  Tolerance :   2.0000e-06

================================================================================
                                        WARNING
Number of found core electrons (2) does not match given number of chemical core electrons (18)
================================================================================
             **** THE GBW FILE WAS UPDATED (Kr_def2-qzvpp_4385.151648_.gbw) ****
             **** DENSITY FILE WAS UPDATED (Kr_def2-qzvpp_4385.151648_.scfp) ****
             **** ENERGY FILE WAS UPDATED (Kr_def2-qzvpp_4385.151648_.en.tmp) ****
             **** THE GBW FILE WAS UPDATED (Kr_def2-qzvpp_4385.151648_.gbw) ****
             **** DENSITY FILE WAS UPDATED (Kr_def2-qzvpp_4385.151648_.scfp) ****
----------------
ORBITAL ENERGIES
----------------

  NO   OCC          E(Eh)            E(eV) 
   0   2.0000    -616.329840    -16771.1876 
   1   0.0000    -148.998641     -4054.4591 
   2   0.0000    -146.800904     -3994.6557 
   3   0.0000    -146.800904     -3994.6557 
   4   0.0000    -146.800904     -3994.6557 
   5   0.0000     -65.456359     -1781.1581 
   6   0.0000     -63.620520     -1731.2024 
   7   0.0000     -63.620520     -1731.2024 
   8   0.0000     -63.620520     -1731.2024 
   9   0.0000     -59.440695     -1617.4635 
  10   0.0000     -59.440695     -1617.4635 
  11   0.0000     -59.440695     -1617.4635 
  12   0.0000     -59.440695     -1617.4635 
  13   0.0000     -59.440695     -1617.4635 
  14   0.0000     -36.620230      -996.4871 
  15   0.0000     -35.799998      -974.1675 
  16   0.0000     -35.799998      -974.1675 
  17   0.0000     -35.799998      -974.1675 
  18   0.0000     -35.799998      -974.1675 
  19   0.0000     -35.799998      -974.1675 
  20   0.0000     -35.799998      -974.1675 
  21   0.0000     -35.799998      -974.1675 
  22   0.0000     -35.095450      -954.9957 
  23   0.0000     -35.095450      -954.9957 
  24   0.0000     -35.095450      -954.9957 
  25   0.0000     -28.948554      -787.7302 
  26   0.0000     -28.948554      -787.7302 
  27   0.0000     -28.948554      -787.7302 
  28   0.0000     -28.948554      -787.7302 
  29   0.0000     -28.948554      -787.7302 
  30   0.0000     -23.193125      -631.1170 
  31   0.0000     -22.181001      -603.5757 
  32   0.0000     -22.181001      -603.5757 
  33   0.0000     -22.181001      -603.5757 
  34   0.0000     -20.753128      -564.7213 
  35   0.0000     -20.753128      -564.7213 
  36   0.0000     -20.753128      -564.7213 
  37   0.0000     -20.753128      -564.7213 
  38   0.0000     -20.753128      -564.7213 
  39   0.0000     -20.753128      -564.7213 
  40   0.0000     -20.753128      -564.7213 
  41   0.0000     -17.077014      -464.6892 
  42   0.0000     -17.077014      -464.6892 
  43   0.0000     -17.077014      -464.6892 
  44   0.0000     -17.077014      -464.6892 
  45   0.0000     -17.077014      -464.6892 
  46   0.0000     -15.639640      -425.5762 
  47   0.0000     -15.169871      -412.7932 
  48   0.0000     -15.169871      -412.7932 
  49   0.0000     -15.169871      -412.7932 
  50   0.0000     -14.891968      -405.2311 
  51   0.0000     -14.891968      -405.2311 
  52   0.0000     -14.891968      -405.2311 
  53   0.0000     -14.891968      -405.2311 
  54   0.0000     -14.891968      -405.2311 
  55   0.0000     -14.891968      -405.2311 
  56   0.0000     -14.891968      -405.2311 
  57   0.0000     -14.891968      -405.2311 
  58   0.0000     -14.891968      -405.2311 
  59   0.0000     -14.522662      -395.1817 
  60   0.0000     -14.522662      -395.1817 
  61   0.0000     -14.522662      -395.1817 
  62   0.0000     -14.522662      -395.1817 
  63   0.0000     -14.522662      -395.1817 
  64   0.0000     -14.522662      -395.1817 
  65   0.0000     -14.522662      -395.1817 
  66   0.0000     -11.312578      -307.8309 
  67   0.0000     -11.211727      -305.0866 
  68   0.0000     -11.211727      -305.0866 
  69   0.0000     -11.211727      -305.0866 
  70   0.0000     -11.211727      -305.0866 
  71   0.0000     -11.211727      -305.0866 
  72   0.0000     -11.211727      -305.0866 
  73   0.0000     -11.211727      -305.0866 
  74   0.0000     -10.794384      -293.7301 
  75   0.0000     -10.794384      -293.7301 
  76   0.0000     -10.794384      -293.7301 
  77   0.0000     -10.794384      -293.7301 
  78   0.0000     -10.794384      -293.7301 
  79   0.0000     -10.637375      -289.4577 
  80   0.0000     -10.637375      -289.4577 
  81   0.0000     -10.637375      -289.4577 
  82   0.0000      -8.606883      -234.2052 
  83   0.0000      -7.128153      -193.9669 
  84   0.0000      -7.128153      -193.9669 
  85   0.0000      -7.128153      -193.9669 
  86   0.0000      37.405321      1017.8505 
  87   0.0000     264.792958      7205.3827 
  88   0.0000    1874.182381     50999.0953 

                    ********************************
                    * MULLIKEN POPULATION ANALYSIS *
                    ********************************

-----------------------
MULLIKEN ATOMIC CHARGES
-----------------------
   0 Kr:   34.000000
Sum of atomic charges:   34.0000000

--------------------------------
MULLIKEN REDUCED ORBITAL CHARGES
--------------------------------
  0 Krs       :     2.000000  s :     2.000000
      pz      :     0.000000  p :     0.000000
      px      :     0.000000
      py      :     0.000000
      dz2     :     0.000000  d :     0.000000
      dxz     :     0.000000
      dyz     :     0.000000
      dx2y2   :     0.000000
      dxy     :     0.000000
      f0      :     0.000000  f :     0.000000
      f+1     :     0.000000
      f-1     :     0.000000
      f+2     :     0.000000
      f-2     :     0.000000
      f+3     :     0.000000
      f-3     :     0.000000
      g0      :     0.000000  g :     0.000000
      g+1     :     0.000000
      g-1     :     0.000000
      g+2     :     0.000000
      g-2     :     0.000000
      g+3     :     0.000000
      g-3     :     0.000000
      g+4     :     0.000000
      g-4     :     0.000000


                     *******************************
                     * LOEWDIN POPULATION ANALYSIS *
                     *******************************

----------------------
LOEWDIN ATOMIC CHARGES
----------------------
   0 Kr:   34.000000

-------------------------------
LOEWDIN REDUCED ORBITAL CHARGES
-------------------------------
  0 Krs       :     2.000000  s :     2.000000
      pz      :     0.000000  p :     0.000000
      px      :     0.000000
      py      :     0.000000
      dz2     :     0.000000  d :     0.000000
      dxz     :     0.000000
      dyz     :     0.000000
      dx2y2   :     0.000000
      dxy     :     0.000000
      f0      :     0.000000  f :     0.000000
      f+1     :     0.000000
      f-1     :     0.000000
      f+2     :     0.000000
      f-2     :     0.000000
      f+3     :     0.000000
      f-3     :     0.000000
      g0      :     0.000000  g :     0.000000
      g+1     :     0.000000
      g-1     :     0.000000
      g+2     :     0.000000
      g-2     :     0.000000
      g+3     :     0.000000
      g-3     :     0.000000
      g+4     :     0.000000
      g-4     :     0.000000


                      *****************************
                      * MAYER POPULATION ANALYSIS *
                      *****************************

  NA   - Mulliken gross atomic population
  ZA   - Total nuclear charge
  QA   - Mulliken gross atomic charge
  VA   - Mayer's total valence
  BVA  - Mayer's bonded valence
  FA   - Mayer's free valence

  ATOM       NA         ZA         QA         VA         BVA        FA
  0 Kr     2.0000    36.0000    34.0000     0.0000     0.0000     0.0000

  Mayer bond orders larger than 0.100000


--------------------------
ATOM BASIS FOR ELEMENT Kr
--------------------------
 NewGTO Kr
 S 24
    1   11713823.007999999449         0.000005663467
    2    1755253.397899999982         0.000043995949
    3     399717.419240000017         0.000231129954
    4     113285.792600000001         0.000974893782
    5      36977.205292999999         0.003536196623
    6      13355.036580000000         0.011411983883
    7       5210.901298800000         0.033077314816
    8       2162.113702000000         0.085197504207
    9        943.292910230000         0.186162898285
   10        429.207243310000         0.313418914208
   11        202.407208400000         0.332410649220
   12       3260.498552100000         0.000060332240
   13       1011.106971600000         0.000611154502
   14        392.443592730000         0.002923272514
   15        173.217021320000         0.006619016315
   16         96.619988467000         0.160331904126
   17         38.158284867000         0.010617699805
   18         18.959517570000        -0.001107544254
   19          9.250599619900         0.000015609697
   20          4.348651762100         0.000133285132
   21          2.038032420900        -0.000087914366
   22          0.691101525400         0.000046544544
   23          0.335060651400        -0.000028025806
   24          0.140744411200         0.000007186880
 S 24
    1   11713823.007999999449         0.000001975429
    2    1755253.397899999982         0.000015345881
    3     399717.419240000017         0.000080618620
    4     113285.792600000001         0.000340045028
    5      36977.205292999999         0.001233432917
    6      13355.036580000000         0.003980524294
    7       5210.901298800000         0.011537437885
    8       2162.113702000000         0.029717070996
    9        943.292910230000         0.064934015575
   10        429.207243310000         0.109321185070
   11        202.407208400000         0.115945542707
   12       3260.498552100000         0.001211588757
   13       1011.106971600000         0.012273171453
   14        392.443592730000         0.058704999589
   15        173.217021320000         0.132922725538
   16         96.619988467000         0.044632286194
   17         38.158284867000        -0.579992947542
   18         18.959517570000        -0.525183435521
   19          9.250599619900        -0.065110670723
   20          4.348651762100         0.004233466037
   21          2.038032420900        -0.001464188240
   22          0.691101525400         0.000591358891
   23          0.335060651400        -0.000335101726
   24          0.140744411200         0.000083177212
 S 24
    1   11713823.007999999449        -0.000001056543
    2    1755253.397899999982        -0.000008207629
    3     399717.419240000017        -0.000043118262
    4     113285.792600000001        -0.000181870524
    5      36977.205292999999        -0.000659692313
    6      13355.036580000000        -0.002128953462
    7       5210.901298800000        -0.006170711825
    8       2162.113702000000        -0.015893951779
    9        943.292910230000        -0.034729469553
   10        429.207243310000        -0.058469613111
   11        202.407208400000        -0.062012600940
   12       3260.498552100000        -0.000830168065
   13       1011.106971600000        -0.008409449934
   14        392.443592730000        -0.040224057557
   15        173.217021320000        -0.091077274509
   16         96.619988467000        -0.026951324506
   17         38.158284867000         0.619853697626
   18         18.959517570000         0.820122562134
   19          9.250599619900        -1.015858065658
   20          4.348651762100        -0.700992352640
   21          2.038032420900         0.067002632300
   22          0.691101525400        -0.027214092745
   23          0.335060651400         0.015081639309
   24          0.140744411200        -0.003682703153
 S 24
    1   11713823.007999999449         0.000000676309
    2    1755253.397899999982         0.000005253824
    3     399717.419240000017         0.000027600635
    4     113285.792600000001         0.000116418001
    5      36977.205292999999         0.000422278764
    6      13355.036580000000         0.001362774461
    7       5210.901298800000         0.003949963505
    8       2162.113702000000         0.010173952579
    9        943.292910230000         0.022230844867
   10        429.207243310000         0.037427260342
   11        202.407208400000         0.039695179024
   12       3260.498552100000         0.000600254484
   13       1011.106971600000         0.006080467617
   14        392.443592730000         0.029084075810
   15        173.217021320000         0.065853584081
   16         96.619988467000         0.007415130613
   17         38.158284867000        -0.457645481373
   18         18.959517570000        -0.986290304811
   19          9.250599619900         2.232148630939
   20          4.348651762100         0.174258774481
   21          2.038032420900        -1.726961058512
   22          0.691101525400         0.184761793393
   23          0.335060651400        -0.101032127847
   24          0.140744411200         0.024176833759
 S 24
    1   11713823.007999999449         0.000000475848
    2    1755253.397899999982         0.000003696565
    3     399717.419240000017         0.000019419671
    4     113285.792600000001         0.000081911133
    5      36977.205292999999         0.000297113261
    6      13355.036580000000         0.000958841408
    7       5210.901298800000         0.002779174896
    8       2162.113702000000         0.007158342997
    9        943.292910230000         0.015641513113
   10        429.207243310000         0.026333636303
   11        202.407208400000         0.027929332733
   12       3260.498552100000         0.000494018371
   13       1011.106971600000         0.005004315310
   14        392.443592730000         0.023936627084
   15        173.217021320000         0.054198479423
   16         96.619988467000        -0.020703726222
   17         38.158284867000        -0.245551539065
   18         18.959517570000        -1.274560654521
   19          9.250599619900         3.487359824633
   20          4.348651762100        -2.381513761575
   21          2.038032420900        -1.065790450468
   22          0.691101525400         2.480521109427
   23          0.335060651400        -0.884791700430
   24          0.140744411200         0.185930721538
 S 24
    1   11713823.007999999449         0.000000400761
    2    1755253.397899999982         0.000003113262
    3     399717.419240000017         0.000016355327
    4     113285.792600000001         0.000068985896
    5      36977.205292999999         0.000250230023
    6      13355.036580000000         0.000807540218
    7       5210.901298800000         0.002340632646
    8       2162.113702000000         0.006028786219
    9        943.292910230000         0.013173347343
   10        429.207243310000         0.022178297924
   11        202.407208400000         0.023522200089
   12       3260.498552100000         0.000481356495
   13       1011.106971600000         0.004876052831
   14        392.443592730000         0.023323122350
   15        173.217021320000         0.052809352059
   16         96.619988467000        -0.044634808833
   17         38.158284867000        -0.101120122895
   18         18.959517570000        -1.652265102773
   19          9.250599619900         4.879394543692
   20          4.348651762100        -5.889607522256
   21          2.038032420900         2.967986804633
   22          0.691101525400         1.499587054535
   23          0.335060651400        -2.653651162580
   24          0.140744411200         0.486890176018
 S 24
    1   11713823.007999999449         0.000000424225
    2    1755253.397899999982         0.000003295539
    3     399717.419240000017         0.000017312905
    4     113285.792600000001         0.000073024908
    5      36977.205292999999         0.000264880582
    6      13355.036580000000         0.000854820379
    7       5210.901298800000         0.002477672863
    8       2162.113702000000         0.006381761801
    9        943.292910230000         0.013944625305
   10        429.207243310000         0.023476801029
   11        202.407208400000         0.024899386469
   12       3260.498552100000         0.000535511428
   13       1011.106971600000         0.005424632349
   14        392.443592730000         0.025947086376
   15        173.217021320000         0.058750659484
   16         96.619988467000        -0.057595866357
   17         38.158284867000        -0.067879051030
   18         18.959517570000        -2.041350190539
   19          9.250599619900         6.395623123826
   20          4.348651762100        -9.415270493860
   21          2.038032420900         8.017150528612
   22          0.691101525400        -5.574118201041
   23          0.335060651400         2.569259350461
   24          0.140744411200         0.378842726344
 S 24
    1   11713823.007999999449         0.000000241175
    2    1755253.397899999982         0.000001873538
    3     399717.419240000017         0.000009842514
    4     113285.792600000001         0.000041515199
    5      36977.205292999999         0.000150586567
    6      13355.036580000000         0.000485971696
    7       5210.901298800000         0.001408575314
    8       2162.113702000000         0.003628078697
    9        943.292910230000         0.007927622431
   10        429.207243310000         0.013346734701
   11        202.407208400000         0.014155485026
   12       3260.498552100000         0.000298354609
   13       1011.106971600000         0.003022277358
   14        392.443592730000         0.014456148659
   15        173.217021320000         0.032732317417
   16         96.619988467000        -0.029255837700
   17         38.158284867000        -0.056787117381
   18         18.959517570000        -1.151059336352
   19          9.250599619900         3.827135328494
   20          4.348651762100        -6.145494862714
   21          2.038032420900         6.161346520618
   22          0.691101525400        -7.206580005011
   23          0.335060651400         7.467410404746
   24          0.140744411200        -3.372495010248
 S 24
    1   11713823.007999999449         0.000001982138
    2    1755253.397899999982         0.000015397998
    3     399717.419240000017         0.000080892417
    4     113285.792600000001         0.000341199888
    5      36977.205292999999         0.001237621899
    6      13355.036580000000         0.003994042941
    7       5210.901298800000         0.011576621304
    8       2162.113702000000         0.029817996040
    9        943.292910230000         0.065154544322
   10        429.207243310000         0.109692461415
   11        202.407208400000         0.116339316680
   12       3260.498552100000         0.000101694268
   13       1011.106971600000         0.001030144248
   14        392.443592730000         0.004927383104
   15        173.217021320000         0.011156821335
   16         96.619988467000         1.040837947320
   17         38.158284867000        -7.863262923805
   18         18.959517570000        15.290819491295
   19          9.250599619900       -15.595421037682
   20          4.348651762100        10.868396154259
   21          2.038032420900        -5.489751537601
   22          0.691101525400         2.649506216703
   23          0.335060651400        -1.579845798845
   24          0.140744411200         0.406954213219
 S 24
    1   11713823.007999999449        -0.000000997838
    2    1755253.397899999982        -0.000007751582
    3     399717.419240000017        -0.000040722449
    4     113285.792600000001        -0.000171765112
    5      36977.205292999999        -0.000623037321
    6      13355.036580000000        -0.002010660782
    7       5210.901298800000        -0.005827843814
    8       2162.113702000000        -0.015010823901
    9        943.292910230000        -0.032799769302
   10        429.207243310000        -0.055220820988
   11        202.407208400000        -0.058566947057
   12       3260.498552100000        -0.014257274389
   13       1011.106971600000        -0.144423569469
   14        392.443592730000        -0.690806416148
   15        173.217021320000        -1.564157606624
   16         96.619988467000         6.775496770057
   17         38.158284867000       -10.924423807882
   18         18.959517570000        11.928637148066
   19          9.250599619900        -8.570163743372
   20          4.348651762100         4.932900098733
   21          2.038032420900        -2.282240197498
   22          0.691101525400         1.042958824959
   23          0.335060651400        -0.608743752879
   24          0.140744411200         0.153954278753
 S 24
    1   11713823.007999999449        -0.000036311155
    2    1755253.397899999982        -0.000282078774
    3     399717.419240000017        -0.001481883131
    4     113285.792600000001        -0.006250503772
    5      36977.205292999999        -0.022672224131
    6      13355.036580000000        -0.073167610271
    7       5210.901298800000        -0.212074263698
    8       2162.113702000000        -0.546241376422
    9        943.292910230000        -1.193578130545
   10        429.207243310000        -2.009476459290
   11        202.407208400000        -2.131241428466
   12       3260.498552100000         0.059295203093
   13       1011.106971600000         0.600649510540
   14        392.443592730000         2.873025069683
   15        173.217021320000         6.505243598957
   16         96.619988467000        -7.464857547210
   17         38.158284867000         6.851447658249
   18         18.959517570000        -6.443113687100
   19          9.250599619900         4.407005755280
   20          4.348651762100        -2.517783017483
   21          2.038032420900         1.168774087202
   22          0.691101525400        -0.535625070432
   23          0.335060651400         0.312485803197
   24          0.140744411200        -0.078917094980
 P 20
    1      28609.335767000000         0.000064515687
    2       6773.123636400000         0.000573313371
    3       2199.801107900000         0.003297430219
    4        841.502015900000         0.014405045296
    5        356.921102880000         0.050193788153
    6        162.711743510000         0.138145867119
    7         78.004264994000         0.283611281319
    8         38.682579997000         0.391997426063
    9         19.589158685000         0.292132888423
   10          9.799086341700         0.083965293287
   11        261.377868690000         0.000450220180
   12        100.099321460000         0.003304408541
   13         44.012139363000         0.009580196183
   14         10.854010739000        -0.069226671373
   15          5.435193018200        -0.157606002226
   16          2.706280554200         0.192975394604
   17          1.319563340800        -0.136319607561
   18          0.580044559700         0.069089815063
   19          0.243299762600        -0.029579888444
   20          0.096823725100         0.008478256415
 P 20
    1      28609.335767000000         0.000029930660
    2       6773.123636400000         0.000265976364
    3       2199.801107900000         0.001529771577
    4        841.502015900000         0.006682909840
    5        356.921102880000         0.023286324609
    6        162.711743510000         0.064089793249
    7         78.004264994000         0.131575332378
    8         38.682579997000         0.181858744778
    9         19.589158685000         0.135528748060
   10          9.799086341700         0.038953885477
   11        261.377868690000         0.003193350760
   12        100.099321460000         0.023437722255
   13         44.012139363000         0.067951034052
   14         10.854010739000        -0.491015404476
   15          5.435193018200        -1.117878028747
   16          2.706280554200         0.731569451114
   17          1.319563340800        -0.489357575396
   18          0.580044559700         0.239096979484
   19          0.243299762600        -0.100230818172
   20          0.096823725100         0.028339097994
 P 20
    1      28609.335767000000         0.000014082159
    2       6773.123636400000         0.000125139956
    3       2199.801107900000         0.000719746466
    4        841.502015900000         0.003144260758
    5        356.921102880000         0.010956047351
    6        162.711743510000         0.030153784307
    7         78.004264994000         0.061905242497
    8         38.682579997000         0.085563224445
    9         19.589158685000         0.063765295989
   10          9.799086341700         0.018327521452
   11        261.377868690000         0.003257830024
   12        100.099321460000         0.023910970321
   13         44.012139363000         0.069323082714
   14         10.854010739000        -0.500929852996
   15          5.435193018200        -1.140449915629
   16          2.706280554200         2.315928982475
   17          1.319563340800        -0.670012623624
   18          0.580044559700         0.347426157995
   19          0.243299762600        -0.142820102371
   20          0.096823725100         0.039679622295
 P 20
    1      28609.335767000000         0.000007435455
    2       6773.123636400000         0.000066074564
    3       2199.801107900000         0.000380029972
    4        841.502015900000         0.001660186449
    5        356.921102880000         0.005784851432
    6        162.711743510000         0.015921358931
    7         78.004264994000         0.032686298193
    8         38.682579997000         0.045177838835
    9         19.589158685000         0.033668416357
   10          9.799086341700         0.009677029071
   11        261.377868690000         0.002568410269
   12        100.099321460000         0.018850947185
   13         44.012139363000         0.054652979507
   14         10.854010739000        -0.394923421153
   15          5.435193018200        -0.899108686855
   16          2.706280554200         3.198723219854
   17          1.319563340800        -2.807297597401
   18          0.580044559700         0.348406016758
   19          0.243299762600        -0.161415113141
   20          0.096823725100         0.044275100311
 P 20
    1      28609.335767000000         0.000004112228
    2       6773.123636400000         0.000036542981
    3       2199.801107900000         0.000210178127
    4        841.502015900000         0.000918177259
    5        356.921102880000         0.003199350915
    6        162.711743510000         0.008805414426
    7         78.004264994000         0.018077376617
    8         38.682579997000         0.024985907016
    9         19.589158685000         0.018620543660
   10          9.799086341700         0.005351945883
   11        261.377868690000         0.001761189531
   12        100.099321460000         0.012926319146
   13         44.012139363000         0.037476199388
   14         10.854010739000        -0.270803696479
   15          5.435193018200        -0.616529541920
   16          2.706280554200         2.920604058067
   17          1.319563340800        -4.304901775829
   18          0.580044559700         2.923939954388
   19          0.243299762600        -0.395141545919
   20          0.096823725100         0.094446392421
 P 20
    1      28609.335767000000         0.000002028152
    2       6773.123636400000         0.000018023011
    3       2199.801107900000         0.000103659926
    4        841.502015900000         0.000452845347
    5        356.921102880000         0.001577920994
    6        162.711743510000         0.004342833486
    7         78.004264994000         0.008915768493
    8         38.682579997000         0.012323058111
    9         19.589158685000         0.009183658669
   10          9.799086341700         0.002639581588
   11        261.377868690000         0.000951553517
   12        100.099321460000         0.006983964096
   13         44.012139363000         0.020248024827
   14         10.854010739000        -0.146312594632
   15          5.435193018200        -0.333104895239
   16          2.706280554200         1.797099814499
   17          1.319563340800        -3.344718142286
   18          0.580044559700         3.966454244964
   19          0.243299762600        -2.818217062294
   20          0.096823725100         0.386200270801
 P 20
    1      28609.335767000000         0.000000818509
    2       6773.123636400000         0.000007273614
    3       2199.801107900000         0.000041834423
    4        841.502015900000         0.000182756485
    5        356.921102880000         0.000636807458
    6        162.711743510000         0.001752653501
    7         78.004264994000         0.003598169930
    8         38.682579997000         0.004973262504
    9         19.589158685000         0.003706283367
   10          9.799086341700         0.001065265782
   11        261.377868690000         0.000388687723
   12        100.099321460000         0.002852788678
   13         44.012139363000         0.008270852367
   14         10.854010739000        -0.059765329209
   15          5.435193018200        -0.136065687135
   16          2.706280554200         0.763400922767
   17          1.319563340800        -1.549594346662
   18          0.580044559700         2.303853327288
   19          0.243299762600        -2.804091789655
   20          0.096823725100         2.043625377819
 D 10
    1        665.350573860000         0.000796935551
    2        200.179953660000         0.007301402227
    3         77.545085570000         0.037421604570
    4         33.677854345000         0.125874384503
    5         15.624928334000         0.291889070260
    6          7.442786742300         0.451236267595
    7          3.533607353500         0.469979140382
    8          1.636372514200        -0.438410616018
    9          0.678456847300         0.229921353189
   10          0.270000000000        -0.076037975477
 D 10
    1        665.350573860000         0.000283891917
    2        200.179953660000         0.002600974539
    3         77.545085570000         0.013330677814
    4         33.677854345000         0.044840163434
    5         15.624928334000         0.103979484522
    6          7.442786742300         0.160743649840
    7          3.533607353500         0.167420413205
    8          1.636372514200        -1.447385995596
    9          0.678456847300         0.474600445851
   10          0.270000000000        -0.145045610967
 D 10
    1        665.350573860000         0.000123294487
    2        200.179953660000         0.001129605320
    3         77.545085570000         0.005789524025
    4         33.677854345000         0.019474118803
    5         15.624928334000         0.045158373198
    6          7.442786742300         0.069811095545
    7          3.533607353500         0.072710819209
    8          1.636372514200        -1.076037266562
    9          0.678456847300         1.734044714786
   10          0.270000000000        -0.280577759081
 D 10
    1        665.350573860000         0.000052469942
    2        200.179953660000         0.000480721623
    3         77.545085570000         0.002463824611
    4         33.677854345000         0.008287522943
    5         15.624928334000         0.019217868482
    6          7.442786742300         0.029709229048
    7          3.533607353500         0.030943252863
    8          1.636372514200        -0.539612003933
    9          0.678456847300         1.357179949242
   10          0.270000000000        -1.544292417157
 F 4
    1         14.180116992000         0.488939989791
    2          4.539318368000         0.659551127003
    3          0.413000000000        -0.000841950421
    4          0.955700000000         0.008561859978
 F 4
    1         14.180116992000         0.571282906594
    2          4.539318368000        -0.304121047753
    3          0.413000000000         0.252566476663
    4          0.955700000000        -0.950006777686
 F 4
    1         14.180116992000         0.800911075404
    2          4.539318368000        -0.859547012161
    3          0.413000000000         0.320106517930
    4          0.955700000000         0.488080248905
 F 4
    1         14.180116992000         0.394686344818
    2          4.539318368000        -0.515139094569
    3          0.413000000000        -1.330457365770
    4          0.955700000000         0.995844095014
 G 1
    1          0.739500000000         1.000000000000
 end
  // -----------------------------------------------
  // The basis set
  // -----------------------------------------------
  BAS[ATNO] = new BFNGauss[NSH];
  // Basis function   1 L = s
  InitBFNGauss(BAS[ATNO][  0]);
  BAS[ATNO][  0].l  = 0;
  BAS[ATNO][  0].ng = 24;
  BAS[ATNO][  0].a[  0] =  11713823.007999999449;     BAS[ATNO][  0].d[  0] =         0.000005663467;
  BAS[ATNO][  0].a[  1] =   1755253.397899999982;     BAS[ATNO][  0].d[  1] =         0.000043995949;
  BAS[ATNO][  0].a[  2] =    399717.419240000017;     BAS[ATNO][  0].d[  2] =         0.000231129954;
  BAS[ATNO][  0].a[  3] =    113285.792600000001;     BAS[ATNO][  0].d[  3] =         0.000974893782;
  BAS[ATNO][  0].a[  4] =     36977.205292999999;     BAS[ATNO][  0].d[  4] =         0.003536196623;
  BAS[ATNO][  0].a[  5] =     13355.036580000000;     BAS[ATNO][  0].d[  5] =         0.011411983883;
  BAS[ATNO][  0].a[  6] =      5210.901298800000;     BAS[ATNO][  0].d[  6] =         0.033077314816;
  BAS[ATNO][  0].a[  7] =      2162.113702000000;     BAS[ATNO][  0].d[  7] =         0.085197504207;
  BAS[ATNO][  0].a[  8] =       943.292910230000;     BAS[ATNO][  0].d[  8] =         0.186162898285;
  BAS[ATNO][  0].a[  9] =       429.207243310000;     BAS[ATNO][  0].d[  9] =         0.313418914208;
  BAS[ATNO][  0].a[ 10] =       202.407208400000;     BAS[ATNO][  0].d[ 10] =         0.332410649220;
  BAS[ATNO][  0].a[ 11] =      3260.498552100000;     BAS[ATNO][  0].d[ 11] =         0.000060332240;
  BAS[ATNO][  0].a[ 12] =      1011.106971600000;     BAS[ATNO][  0].d[ 12] =         0.000611154502;
  BAS[ATNO][  0].a[ 13] =       392.443592730000;     BAS[ATNO][  0].d[ 13] =         0.002923272514;
  BAS[ATNO][  0].a[ 14] =       173.217021320000;     BAS[ATNO][  0].d[ 14] =         0.006619016315;
  BAS[ATNO][  0].a[ 15] =        96.619988467000;     BAS[ATNO][  0].d[ 15] =         0.160331904126;
  BAS[ATNO][  0].a[ 16] =        38.158284867000;     BAS[ATNO][  0].d[ 16] =         0.010617699805;
  BAS[ATNO][  0].a[ 17] =        18.959517570000;     BAS[ATNO][  0].d[ 17] =        -0.001107544254;
  BAS[ATNO][  0].a[ 18] =         9.250599619900;     BAS[ATNO][  0].d[ 18] =         0.000015609697;
  BAS[ATNO][  0].a[ 19] =         4.348651762100;     BAS[ATNO][  0].d[ 19] =         0.000133285132;
  BAS[ATNO][  0].a[ 20] =         2.038032420900;     BAS[ATNO][  0].d[ 20] =        -0.000087914366;
  BAS[ATNO][  0].a[ 21] =         0.691101525400;     BAS[ATNO][  0].d[ 21] =         0.000046544544;
  BAS[ATNO][  0].a[ 22] =         0.335060651400;     BAS[ATNO][  0].d[ 22] =        -0.000028025806;
  BAS[ATNO][  0].a[ 23] =         0.140744411200;     BAS[ATNO][  0].d[ 23] =         0.000007186880;

  // Basis function   2 L = s
  InitBFNGauss(BAS[ATNO][  1]);
  BAS[ATNO][  1].l  = 0;
  BAS[ATNO][  1].ng = 24;
  BAS[ATNO][  1].a[  0] =  11713823.007999999449;     BAS[ATNO][  1].d[  0] =        -0.000001975429;
  BAS[ATNO][  1].a[  1] =   1755253.397899999982;     BAS[ATNO][  1].d[  1] =        -0.000015345881;
  BAS[ATNO][  1].a[  2] =    399717.419240000017;     BAS[ATNO][  1].d[  2] =        -0.000080618620;
  BAS[ATNO][  1].a[  3] =    113285.792600000001;     BAS[ATNO][  1].d[  3] =        -0.000340045028;
  BAS[ATNO][  1].a[  4] =     36977.205292999999;     BAS[ATNO][  1].d[  4] =        -0.001233432917;
  BAS[ATNO][  1].a[  5] =     13355.036580000000;     BAS[ATNO][  1].d[  5] =        -0.003980524294;
  BAS[ATNO][  1].a[  6] =      5210.901298800000;     BAS[ATNO][  1].d[  6] =        -0.011537437885;
  BAS[ATNO][  1].a[  7] =      2162.113702000000;     BAS[ATNO][  1].d[  7] =        -0.029717070996;
  BAS[ATNO][  1].a[  8] =       943.292910230000;     BAS[ATNO][  1].d[  8] =        -0.064934015575;
  BAS[ATNO][  1].a[  9] =       429.207243310000;     BAS[ATNO][  1].d[  9] =        -0.109321185070;
  BAS[ATNO][  1].a[ 10] =       202.407208400000;     BAS[ATNO][  1].d[ 10] =        -0.115945542707;
  BAS[ATNO][  1].a[ 11] =      3260.498552100000;     BAS[ATNO][  1].d[ 11] =        -0.001211588757;
  BAS[ATNO][  1].a[ 12] =      1011.106971600000;     BAS[ATNO][  1].d[ 12] =        -0.012273171453;
  BAS[ATNO][  1].a[ 13] =       392.443592730000;     BAS[ATNO][  1].d[ 13] =        -0.058704999589;
  BAS[ATNO][  1].a[ 14] =       173.217021320000;     BAS[ATNO][  1].d[ 14] =        -0.132922725538;
  BAS[ATNO][  1].a[ 15] =        96.619988467000;     BAS[ATNO][  1].d[ 15] =        -0.044632286194;
  BAS[ATNO][  1].a[ 16] =        38.158284867000;     BAS[ATNO][  1].d[ 16] =         0.579992947542;
  BAS[ATNO][  1].a[ 17] =        18.959517570000;     BAS[ATNO][  1].d[ 17] =         0.525183435521;
  BAS[ATNO][  1].a[ 18] =         9.250599619900;     BAS[ATNO][  1].d[ 18] =         0.065110670723;
  BAS[ATNO][  1].a[ 19] =         4.348651762100;     BAS[ATNO][  1].d[ 19] =        -0.004233466037;
  BAS[ATNO][  1].a[ 20] =         2.038032420900;     BAS[ATNO][  1].d[ 20] =         0.001464188240;
  BAS[ATNO][  1].a[ 21] =         0.691101525400;     BAS[ATNO][  1].d[ 21] =        -0.000591358891;
  BAS[ATNO][  1].a[ 22] =         0.335060651400;     BAS[ATNO][  1].d[ 22] =         0.000335101726;
  BAS[ATNO][  1].a[ 23] =         0.140744411200;     BAS[ATNO][  1].d[ 23] =        -0.000083177212;

  // Basis function   3 L = s
  InitBFNGauss(BAS[ATNO][  2]);
  BAS[ATNO][  2].l  = 0;
  BAS[ATNO][  2].ng = 24;
  BAS[ATNO][  2].a[  0] =  11713823.007999999449;     BAS[ATNO][  2].d[  0] =         0.000001056543;
  BAS[ATNO][  2].a[  1] =   1755253.397899999982;     BAS[ATNO][  2].d[  1] =         0.000008207629;
  BAS[ATNO][  2].a[  2] =    399717.419240000017;     BAS[ATNO][  2].d[  2] =         0.000043118262;
  BAS[ATNO][  2].a[  3] =    113285.792600000001;     BAS[ATNO][  2].d[  3] =         0.000181870524;
  BAS[ATNO][  2].a[  4] =     36977.205292999999;     BAS[ATNO][  2].d[  4] =         0.000659692313;
  BAS[ATNO][  2].a[  5] =     13355.036580000000;     BAS[ATNO][  2].d[  5] =         0.002128953462;
  BAS[ATNO][  2].a[  6] =      5210.901298800000;     BAS[ATNO][  2].d[  6] =         0.006170711825;
  BAS[ATNO][  2].a[  7] =      2162.113702000000;     BAS[ATNO][  2].d[  7] =         0.015893951779;
  BAS[ATNO][  2].a[  8] =       943.292910230000;     BAS[ATNO][  2].d[  8] =         0.034729469553;
  BAS[ATNO][  2].a[  9] =       429.207243310000;     BAS[ATNO][  2].d[  9] =         0.058469613111;
  BAS[ATNO][  2].a[ 10] =       202.407208400000;     BAS[ATNO][  2].d[ 10] =         0.062012600940;
  BAS[ATNO][  2].a[ 11] =      3260.498552100000;     BAS[ATNO][  2].d[ 11] =         0.000830168065;
  BAS[ATNO][  2].a[ 12] =      1011.106971600000;     BAS[ATNO][  2].d[ 12] =         0.008409449934;
  BAS[ATNO][  2].a[ 13] =       392.443592730000;     BAS[ATNO][  2].d[ 13] =         0.040224057557;
  BAS[ATNO][  2].a[ 14] =       173.217021320000;     BAS[ATNO][  2].d[ 14] =         0.091077274509;
  BAS[ATNO][  2].a[ 15] =        96.619988467000;     BAS[ATNO][  2].d[ 15] =         0.026951324506;
  BAS[ATNO][  2].a[ 16] =        38.158284867000;     BAS[ATNO][  2].d[ 16] =        -0.619853697626;
  BAS[ATNO][  2].a[ 17] =        18.959517570000;     BAS[ATNO][  2].d[ 17] =        -0.820122562134;
  BAS[ATNO][  2].a[ 18] =         9.250599619900;     BAS[ATNO][  2].d[ 18] =         1.015858065658;
  BAS[ATNO][  2].a[ 19] =         4.348651762100;     BAS[ATNO][  2].d[ 19] =         0.700992352640;
  BAS[ATNO][  2].a[ 20] =         2.038032420900;     BAS[ATNO][  2].d[ 20] =        -0.067002632300;
  BAS[ATNO][  2].a[ 21] =         0.691101525400;     BAS[ATNO][  2].d[ 21] =         0.027214092745;
  BAS[ATNO][  2].a[ 22] =         0.335060651400;     BAS[ATNO][  2].d[ 22] =        -0.015081639309;
  BAS[ATNO][  2].a[ 23] =         0.140744411200;     BAS[ATNO][  2].d[ 23] =         0.003682703153;

  // Basis function   4 L = s
  InitBFNGauss(BAS[ATNO][  3]);
  BAS[ATNO][  3].l  = 0;
  BAS[ATNO][  3].ng = 24;
  BAS[ATNO][  3].a[  0] =  11713823.007999999449;     BAS[ATNO][  3].d[  0] =         0.000000676309;
  BAS[ATNO][  3].a[  1] =   1755253.397899999982;     BAS[ATNO][  3].d[  1] =         0.000005253824;
  BAS[ATNO][  3].a[  2] =    399717.419240000017;     BAS[ATNO][  3].d[  2] =         0.000027600635;
  BAS[ATNO][  3].a[  3] =    113285.792600000001;     BAS[ATNO][  3].d[  3] =         0.000116418001;
  BAS[ATNO][  3].a[  4] =     36977.205292999999;     BAS[ATNO][  3].d[  4] =         0.000422278764;
  BAS[ATNO][  3].a[  5] =     13355.036580000000;     BAS[ATNO][  3].d[  5] =         0.001362774461;
  BAS[ATNO][  3].a[  6] =      5210.901298800000;     BAS[ATNO][  3].d[  6] =         0.003949963505;
  BAS[ATNO][  3].a[  7] =      2162.113702000000;     BAS[ATNO][  3].d[  7] =         0.010173952579;
  BAS[ATNO][  3].a[  8] =       943.292910230000;     BAS[ATNO][  3].d[  8] =         0.022230844867;
  BAS[ATNO][  3].a[  9] =       429.207243310000;     BAS[ATNO][  3].d[  9] =         0.037427260342;
  BAS[ATNO][  3].a[ 10] =       202.407208400000;     BAS[ATNO][  3].d[ 10] =         0.039695179024;
  BAS[ATNO][  3].a[ 11] =      3260.498552100000;     BAS[ATNO][  3].d[ 11] =         0.000600254484;
  BAS[ATNO][  3].a[ 12] =      1011.106971600000;     BAS[ATNO][  3].d[ 12] =         0.006080467617;
  BAS[ATNO][  3].a[ 13] =       392.443592730000;     BAS[ATNO][  3].d[ 13] =         0.029084075810;
  BAS[ATNO][  3].a[ 14] =       173.217021320000;     BAS[ATNO][  3].d[ 14] =         0.065853584081;
  BAS[ATNO][  3].a[ 15] =        96.619988467000;     BAS[ATNO][  3].d[ 15] =         0.007415130613;
  BAS[ATNO][  3].a[ 16] =        38.158284867000;     BAS[ATNO][  3].d[ 16] =        -0.457645481373;
  BAS[ATNO][  3].a[ 17] =        18.959517570000;     BAS[ATNO][  3].d[ 17] =        -0.986290304811;
  BAS[ATNO][  3].a[ 18] =         9.250599619900;     BAS[ATNO][  3].d[ 18] =         2.232148630939;
  BAS[ATNO][  3].a[ 19] =         4.348651762100;     BAS[ATNO][  3].d[ 19] =         0.174258774481;
  BAS[ATNO][  3].a[ 20] =         2.038032420900;     BAS[ATNO][  3].d[ 20] =        -1.726961058512;
  BAS[ATNO][  3].a[ 21] =         0.691101525400;     BAS[ATNO][  3].d[ 21] =         0.184761793393;
  BAS[ATNO][  3].a[ 22] =         0.335060651400;     BAS[ATNO][  3].d[ 22] =        -0.101032127847;
  BAS[ATNO][  3].a[ 23] =         0.140744411200;     BAS[ATNO][  3].d[ 23] =         0.024176833759;

  // Basis function   5 L = s
  InitBFNGauss(BAS[ATNO][  4]);
  BAS[ATNO][  4].l  = 0;
  BAS[ATNO][  4].ng = 24;
  BAS[ATNO][  4].a[  0] =  11713823.007999999449;     BAS[ATNO][  4].d[  0] =         0.000000475848;
  BAS[ATNO][  4].a[  1] =   1755253.397899999982;     BAS[ATNO][  4].d[  1] =         0.000003696565;
  BAS[ATNO][  4].a[  2] =    399717.419240000017;     BAS[ATNO][  4].d[  2] =         0.000019419671;
  BAS[ATNO][  4].a[  3] =    113285.792600000001;     BAS[ATNO][  4].d[  3] =         0.000081911133;
  BAS[ATNO][  4].a[  4] =     36977.205292999999;     BAS[ATNO][  4].d[  4] =         0.000297113261;
  BAS[ATNO][  4].a[  5] =     13355.036580000000;     BAS[ATNO][  4].d[  5] =         0.000958841408;
  BAS[ATNO][  4].a[  6] =      5210.901298800000;     BAS[ATNO][  4].d[  6] =         0.002779174896;
  BAS[ATNO][  4].a[  7] =      2162.113702000000;     BAS[ATNO][  4].d[  7] =         0.007158342997;
  BAS[ATNO][  4].a[  8] =       943.292910230000;     BAS[ATNO][  4].d[  8] =         0.015641513113;
  BAS[ATNO][  4].a[  9] =       429.207243310000;     BAS[ATNO][  4].d[  9] =         0.026333636303;
  BAS[ATNO][  4].a[ 10] =       202.407208400000;     BAS[ATNO][  4].d[ 10] =         0.027929332733;
  BAS[ATNO][  4].a[ 11] =      3260.498552100000;     BAS[ATNO][  4].d[ 11] =         0.000494018371;
  BAS[ATNO][  4].a[ 12] =      1011.106971600000;     BAS[ATNO][  4].d[ 12] =         0.005004315310;
  BAS[ATNO][  4].a[ 13] =       392.443592730000;     BAS[ATNO][  4].d[ 13] =         0.023936627084;
  BAS[ATNO][  4].a[ 14] =       173.217021320000;     BAS[ATNO][  4].d[ 14] =         0.054198479423;
  BAS[ATNO][  4].a[ 15] =        96.619988467000;     BAS[ATNO][  4].d[ 15] =        -0.020703726222;
  BAS[ATNO][  4].a[ 16] =        38.158284867000;     BAS[ATNO][  4].d[ 16] =        -0.245551539065;
  BAS[ATNO][  4].a[ 17] =        18.959517570000;     BAS[ATNO][  4].d[ 17] =        -1.274560654521;
  BAS[ATNO][  4].a[ 18] =         9.250599619900;     BAS[ATNO][  4].d[ 18] =         3.487359824633;
  BAS[ATNO][  4].a[ 19] =         4.348651762100;     BAS[ATNO][  4].d[ 19] =        -2.381513761575;
  BAS[ATNO][  4].a[ 20] =         2.038032420900;     BAS[ATNO][  4].d[ 20] =        -1.065790450468;
  BAS[ATNO][  4].a[ 21] =         0.691101525400;     BAS[ATNO][  4].d[ 21] =         2.480521109427;
  BAS[ATNO][  4].a[ 22] =         0.335060651400;     BAS[ATNO][  4].d[ 22] =        -0.884791700430;
  BAS[ATNO][  4].a[ 23] =         0.140744411200;     BAS[ATNO][  4].d[ 23] =         0.185930721538;

  // Basis function   6 L = s
  InitBFNGauss(BAS[ATNO][  5]);
  BAS[ATNO][  5].l  = 0;
  BAS[ATNO][  5].ng = 24;
  BAS[ATNO][  5].a[  0] =  11713823.007999999449;     BAS[ATNO][  5].d[  0] =        -0.000000400761;
  BAS[ATNO][  5].a[  1] =   1755253.397899999982;     BAS[ATNO][  5].d[  1] =        -0.000003113262;
  BAS[ATNO][  5].a[  2] =    399717.419240000017;     BAS[ATNO][  5].d[  2] =        -0.000016355327;
  BAS[ATNO][  5].a[  3] =    113285.792600000001;     BAS[ATNO][  5].d[  3] =        -0.000068985896;
  BAS[ATNO][  5].a[  4] =     36977.205292999999;     BAS[ATNO][  5].d[  4] =        -0.000250230023;
  BAS[ATNO][  5].a[  5] =     13355.036580000000;     BAS[ATNO][  5].d[  5] =        -0.000807540218;
  BAS[ATNO][  5].a[  6] =      5210.901298800000;     BAS[ATNO][  5].d[  6] =        -0.002340632646;
  BAS[ATNO][  5].a[  7] =      2162.113702000000;     BAS[ATNO][  5].d[  7] =        -0.006028786219;
  BAS[ATNO][  5].a[  8] =       943.292910230000;     BAS[ATNO][  5].d[  8] =        -0.013173347343;
  BAS[ATNO][  5].a[  9] =       429.207243310000;     BAS[ATNO][  5].d[  9] =        -0.022178297924;
  BAS[ATNO][  5].a[ 10] =       202.407208400000;     BAS[ATNO][  5].d[ 10] =        -0.023522200089;
  BAS[ATNO][  5].a[ 11] =      3260.498552100000;     BAS[ATNO][  5].d[ 11] =        -0.000481356495;
  BAS[ATNO][  5].a[ 12] =      1011.106971600000;     BAS[ATNO][  5].d[ 12] =        -0.004876052831;
  BAS[ATNO][  5].a[ 13] =       392.443592730000;     BAS[ATNO][  5].d[ 13] =        -0.023323122350;
  BAS[ATNO][  5].a[ 14] =       173.217021320000;     BAS[ATNO][  5].d[ 14] =        -0.052809352059;
  BAS[ATNO][  5].a[ 15] =        96.619988467000;     BAS[ATNO][  5].d[ 15] =         0.044634808833;
  BAS[ATNO][  5].a[ 16] =        38.158284867000;     BAS[ATNO][  5].d[ 16] =         0.101120122895;
  BAS[ATNO][  5].a[ 17] =        18.959517570000;     BAS[ATNO][  5].d[ 17] =         1.652265102773;
  BAS[ATNO][  5].a[ 18] =         9.250599619900;     BAS[ATNO][  5].d[ 18] =        -4.879394543692;
  BAS[ATNO][  5].a[ 19] =         4.348651762100;     BAS[ATNO][  5].d[ 19] =         5.889607522256;
  BAS[ATNO][  5].a[ 20] =         2.038032420900;     BAS[ATNO][  5].d[ 20] =        -2.967986804633;
  BAS[ATNO][  5].a[ 21] =         0.691101525400;     BAS[ATNO][  5].d[ 21] =        -1.499587054535;
  BAS[ATNO][  5].a[ 22] =         0.335060651400;     BAS[ATNO][  5].d[ 22] =         2.653651162580;
  BAS[ATNO][  5].a[ 23] =         0.140744411200;     BAS[ATNO][  5].d[ 23] =        -0.486890176018;

  // Basis function   7 L = s
  InitBFNGauss(BAS[ATNO][  6]);
  BAS[ATNO][  6].l  = 0;
  BAS[ATNO][  6].ng = 24;
  BAS[ATNO][  6].a[  0] =  11713823.007999999449;     BAS[ATNO][  6].d[  0] =        -0.000000424225;
  BAS[ATNO][  6].a[  1] =   1755253.397899999982;     BAS[ATNO][  6].d[  1] =        -0.000003295539;
  BAS[ATNO][  6].a[  2] =    399717.419240000017;     BAS[ATNO][  6].d[  2] =        -0.000017312905;
  BAS[ATNO][  6].a[  3] =    113285.792600000001;     BAS[ATNO][  6].d[  3] =        -0.000073024908;
  BAS[ATNO][  6].a[  4] =     36977.205292999999;     BAS[ATNO][  6].d[  4] =        -0.000264880582;
  BAS[ATNO][  6].a[  5] =     13355.036580000000;     BAS[ATNO][  6].d[  5] =        -0.000854820379;
  BAS[ATNO][  6].a[  6] =      5210.901298800000;     BAS[ATNO][  6].d[  6] =        -0.002477672863;
  BAS[ATNO][  6].a[  7] =      2162.113702000000;     BAS[ATNO][  6].d[  7] =        -0.006381761801;
  BAS[ATNO][  6].a[  8] =       943.292910230000;     BAS[ATNO][  6].d[  8] =        -0.013944625305;
  BAS[ATNO][  6].a[  9] =       429.207243310000;     BAS[ATNO][  6].d[  9] =        -0.023476801029;
  BAS[ATNO][  6].a[ 10] =       202.407208400000;     BAS[ATNO][  6].d[ 10] =        -0.024899386469;
  BAS[ATNO][  6].a[ 11] =      3260.498552100000;     BAS[ATNO][  6].d[ 11] =        -0.000535511428;
  BAS[ATNO][  6].a[ 12] =      1011.106971600000;     BAS[ATNO][  6].d[ 12] =        -0.005424632349;
  BAS[ATNO][  6].a[ 13] =       392.443592730000;     BAS[ATNO][  6].d[ 13] =        -0.025947086376;
  BAS[ATNO][  6].a[ 14] =       173.217021320000;     BAS[ATNO][  6].d[ 14] =        -0.058750659484;
  BAS[ATNO][  6].a[ 15] =        96.619988467000;     BAS[ATNO][  6].d[ 15] =         0.057595866357;
  BAS[ATNO][  6].a[ 16] =        38.158284867000;     BAS[ATNO][  6].d[ 16] =         0.067879051030;
  BAS[ATNO][  6].a[ 17] =        18.959517570000;     BAS[ATNO][  6].d[ 17] =         2.041350190539;
  BAS[ATNO][  6].a[ 18] =         9.250599619900;     BAS[ATNO][  6].d[ 18] =        -6.395623123826;
  BAS[ATNO][  6].a[ 19] =         4.348651762100;     BAS[ATNO][  6].d[ 19] =         9.415270493860;
  BAS[ATNO][  6].a[ 20] =         2.038032420900;     BAS[ATNO][  6].d[ 20] =        -8.017150528612;
  BAS[ATNO][  6].a[ 21] =         0.691101525400;     BAS[ATNO][  6].d[ 21] =         5.574118201041;
  BAS[ATNO][  6].a[ 22] =         0.335060651400;     BAS[ATNO][  6].d[ 22] =        -2.569259350461;
  BAS[ATNO][  6].a[ 23] =         0.140744411200;     BAS[ATNO][  6].d[ 23] =        -0.378842726344;

  // Basis function   8 L = s
  InitBFNGauss(BAS[ATNO][  7]);
  BAS[ATNO][  7].l  = 0;
  BAS[ATNO][  7].ng = 24;
  BAS[ATNO][  7].a[  0] =  11713823.007999999449;     BAS[ATNO][  7].d[  0] =         0.000000241175;
  BAS[ATNO][  7].a[  1] =   1755253.397899999982;     BAS[ATNO][  7].d[  1] =         0.000001873538;
  BAS[ATNO][  7].a[  2] =    399717.419240000017;     BAS[ATNO][  7].d[  2] =         0.000009842514;
  BAS[ATNO][  7].a[  3] =    113285.792600000001;     BAS[ATNO][  7].d[  3] =         0.000041515199;
  BAS[ATNO][  7].a[  4] =     36977.205292999999;     BAS[ATNO][  7].d[  4] =         0.000150586567;
  BAS[ATNO][  7].a[  5] =     13355.036580000000;     BAS[ATNO][  7].d[  5] =         0.000485971696;
  BAS[ATNO][  7].a[  6] =      5210.901298800000;     BAS[ATNO][  7].d[  6] =         0.001408575314;
  BAS[ATNO][  7].a[  7] =      2162.113702000000;     BAS[ATNO][  7].d[  7] =         0.003628078697;
  BAS[ATNO][  7].a[  8] =       943.292910230000;     BAS[ATNO][  7].d[  8] =         0.007927622431;
  BAS[ATNO][  7].a[  9] =       429.207243310000;     BAS[ATNO][  7].d[  9] =         0.013346734701;
  BAS[ATNO][  7].a[ 10] =       202.407208400000;     BAS[ATNO][  7].d[ 10] =         0.014155485026;
  BAS[ATNO][  7].a[ 11] =      3260.498552100000;     BAS[ATNO][  7].d[ 11] =         0.000298354609;
  BAS[ATNO][  7].a[ 12] =      1011.106971600000;     BAS[ATNO][  7].d[ 12] =         0.003022277358;
  BAS[ATNO][  7].a[ 13] =       392.443592730000;     BAS[ATNO][  7].d[ 13] =         0.014456148659;
  BAS[ATNO][  7].a[ 14] =       173.217021320000;     BAS[ATNO][  7].d[ 14] =         0.032732317417;
  BAS[ATNO][  7].a[ 15] =        96.619988467000;     BAS[ATNO][  7].d[ 15] =        -0.029255837700;
  BAS[ATNO][  7].a[ 16] =        38.158284867000;     BAS[ATNO][  7].d[ 16] =        -0.056787117381;
  BAS[ATNO][  7].a[ 17] =        18.959517570000;     BAS[ATNO][  7].d[ 17] =        -1.151059336352;
  BAS[ATNO][  7].a[ 18] =         9.250599619900;     BAS[ATNO][  7].d[ 18] =         3.827135328494;
  BAS[ATNO][  7].a[ 19] =         4.348651762100;     BAS[ATNO][  7].d[ 19] =        -6.145494862714;
  BAS[ATNO][  7].a[ 20] =         2.038032420900;     BAS[ATNO][  7].d[ 20] =         6.161346520618;
  BAS[ATNO][  7].a[ 21] =         0.691101525400;     BAS[ATNO][  7].d[ 21] =        -7.206580005011;
  BAS[ATNO][  7].a[ 22] =         0.335060651400;     BAS[ATNO][  7].d[ 22] =         7.467410404746;
  BAS[ATNO][  7].a[ 23] =         0.140744411200;     BAS[ATNO][  7].d[ 23] =        -3.372495010248;

  // Basis function   9 L = s
  InitBFNGauss(BAS[ATNO][  8]);
  BAS[ATNO][  8].l  = 0;
  BAS[ATNO][  8].ng = 24;
  BAS[ATNO][  8].a[  0] =  11713823.007999999449;     BAS[ATNO][  8].d[  0] =        -0.000001982138;
  BAS[ATNO][  8].a[  1] =   1755253.397899999982;     BAS[ATNO][  8].d[  1] =        -0.000015397998;
  BAS[ATNO][  8].a[  2] =    399717.419240000017;     BAS[ATNO][  8].d[  2] =        -0.000080892417;
  BAS[ATNO][  8].a[  3] =    113285.792600000001;     BAS[ATNO][  8].d[  3] =        -0.000341199888;
  BAS[ATNO][  8].a[  4] =     36977.205292999999;     BAS[ATNO][  8].d[  4] =        -0.001237621899;
  BAS[ATNO][  8].a[  5] =     13355.036580000000;     BAS[ATNO][  8].d[  5] =        -0.003994042941;
  BAS[ATNO][  8].a[  6] =      5210.901298800000;     BAS[ATNO][  8].d[  6] =        -0.011576621304;
  BAS[ATNO][  8].a[  7] =      2162.113702000000;     BAS[ATNO][  8].d[  7] =        -0.029817996040;
  BAS[ATNO][  8].a[  8] =       943.292910230000;     BAS[ATNO][  8].d[  8] =        -0.065154544322;
  BAS[ATNO][  8].a[  9] =       429.207243310000;     BAS[ATNO][  8].d[  9] =        -0.109692461415;
  BAS[ATNO][  8].a[ 10] =       202.407208400000;     BAS[ATNO][  8].d[ 10] =        -0.116339316680;
  BAS[ATNO][  8].a[ 11] =      3260.498552100000;     BAS[ATNO][  8].d[ 11] =        -0.000101694268;
  BAS[ATNO][  8].a[ 12] =      1011.106971600000;     BAS[ATNO][  8].d[ 12] =        -0.001030144248;
  BAS[ATNO][  8].a[ 13] =       392.443592730000;     BAS[ATNO][  8].d[ 13] =        -0.004927383104;
  BAS[ATNO][  8].a[ 14] =       173.217021320000;     BAS[ATNO][  8].d[ 14] =        -0.011156821335;
  BAS[ATNO][  8].a[ 15] =        96.619988467000;     BAS[ATNO][  8].d[ 15] =        -1.040837947320;
  BAS[ATNO][  8].a[ 16] =        38.158284867000;     BAS[ATNO][  8].d[ 16] =         7.863262923805;
  BAS[ATNO][  8].a[ 17] =        18.959517570000;     BAS[ATNO][  8].d[ 17] =       -15.290819491295;
  BAS[ATNO][  8].a[ 18] =         9.250599619900;     BAS[ATNO][  8].d[ 18] =        15.595421037682;
  BAS[ATNO][  8].a[ 19] =         4.348651762100;     BAS[ATNO][  8].d[ 19] =       -10.868396154259;
  BAS[ATNO][  8].a[ 20] =         2.038032420900;     BAS[ATNO][  8].d[ 20] =         5.489751537601;
  BAS[ATNO][  8].a[ 21] =         0.691101525400;     BAS[ATNO][  8].d[ 21] =        -2.649506216703;
  BAS[ATNO][  8].a[ 22] =         0.335060651400;     BAS[ATNO][  8].d[ 22] =         1.579845798845;
  BAS[ATNO][  8].a[ 23] =         0.140744411200;     BAS[ATNO][  8].d[ 23] =        -0.406954213219;

  // Basis function  10 L = s
  InitBFNGauss(BAS[ATNO][  9]);
  BAS[ATNO][  9].l  = 0;
  BAS[ATNO][  9].ng = 24;
  BAS[ATNO][  9].a[  0] =  11713823.007999999449;     BAS[ATNO][  9].d[  0] =        -0.000000997838;
  BAS[ATNO][  9].a[  1] =   1755253.397899999982;     BAS[ATNO][  9].d[  1] =        -0.000007751582;
  BAS[ATNO][  9].a[  2] =    399717.419240000017;     BAS[ATNO][  9].d[  2] =        -0.000040722449;
  BAS[ATNO][  9].a[  3] =    113285.792600000001;     BAS[ATNO][  9].d[  3] =        -0.000171765112;
  BAS[ATNO][  9].a[  4] =     36977.205292999999;     BAS[ATNO][  9].d[  4] =        -0.000623037321;
  BAS[ATNO][  9].a[  5] =     13355.036580000000;     BAS[ATNO][  9].d[  5] =        -0.002010660782;
  BAS[ATNO][  9].a[  6] =      5210.901298800000;     BAS[ATNO][  9].d[  6] =        -0.005827843814;
  BAS[ATNO][  9].a[  7] =      2162.113702000000;     BAS[ATNO][  9].d[  7] =        -0.015010823901;
  BAS[ATNO][  9].a[  8] =       943.292910230000;     BAS[ATNO][  9].d[  8] =        -0.032799769302;
  BAS[ATNO][  9].a[  9] =       429.207243310000;     BAS[ATNO][  9].d[  9] =        -0.055220820988;
  BAS[ATNO][  9].a[ 10] =       202.407208400000;     BAS[ATNO][  9].d[ 10] =        -0.058566947057;
  BAS[ATNO][  9].a[ 11] =      3260.498552100000;     BAS[ATNO][  9].d[ 11] =        -0.014257274389;
  BAS[ATNO][  9].a[ 12] =      1011.106971600000;     BAS[ATNO][  9].d[ 12] =        -0.144423569469;
  BAS[ATNO][  9].a[ 13] =       392.443592730000;     BAS[ATNO][  9].d[ 13] =        -0.690806416148;
  BAS[ATNO][  9].a[ 14] =       173.217021320000;     BAS[ATNO][  9].d[ 14] =        -1.564157606624;
  BAS[ATNO][  9].a[ 15] =        96.619988467000;     BAS[ATNO][  9].d[ 15] =         6.775496770057;
  BAS[ATNO][  9].a[ 16] =        38.158284867000;     BAS[ATNO][  9].d[ 16] =       -10.924423807882;
  BAS[ATNO][  9].a[ 17] =        18.959517570000;     BAS[ATNO][  9].d[ 17] =        11.928637148066;
  BAS[ATNO][  9].a[ 18] =         9.250599619900;     BAS[ATNO][  9].d[ 18] =        -8.570163743372;
  BAS[ATNO][  9].a[ 19] =         4.348651762100;     BAS[ATNO][  9].d[ 19] =         4.932900098733;
  BAS[ATNO][  9].a[ 20] =         2.038032420900;     BAS[ATNO][  9].d[ 20] =        -2.282240197498;
  BAS[ATNO][  9].a[ 21] =         0.691101525400;     BAS[ATNO][  9].d[ 21] =         1.042958824959;
  BAS[ATNO][  9].a[ 22] =         0.335060651400;     BAS[ATNO][  9].d[ 22] =        -0.608743752879;
  BAS[ATNO][  9].a[ 23] =         0.140744411200;     BAS[ATNO][  9].d[ 23] =         0.153954278753;

  // Basis function  11 L = s
  InitBFNGauss(BAS[ATNO][ 10]);
  BAS[ATNO][ 10].l  = 0;
  BAS[ATNO][ 10].ng = 24;
  BAS[ATNO][ 10].a[  0] =  11713823.007999999449;     BAS[ATNO][ 10].d[  0] =         0.000036311155;
  BAS[ATNO][ 10].a[  1] =   1755253.397899999982;     BAS[ATNO][ 10].d[  1] =         0.000282078774;
  BAS[ATNO][ 10].a[  2] =    399717.419240000017;     BAS[ATNO][ 10].d[  2] =         0.001481883131;
[...]
  BAS[ATNO][ 13].a[ 11] =       100.099321460000;     BAS[ATNO][ 13].d[ 11] =         0.023910970321;
  BAS[ATNO][ 13].a[ 12] =        44.012139363000;     BAS[ATNO][ 13].d[ 12] =         0.069323082714;
  BAS[ATNO][ 13].a[ 13] =        10.854010739000;     BAS[ATNO][ 13].d[ 13] =        -0.500929852996;
  BAS[ATNO][ 13].a[ 14] =         5.435193018200;     BAS[ATNO][ 13].d[ 14] =        -1.140449915629;
  BAS[ATNO][ 13].a[ 15] =         2.706280554200;     BAS[ATNO][ 13].d[ 15] =         2.315928982475;
  BAS[ATNO][ 13].a[ 16] =         1.319563340800;     BAS[ATNO][ 13].d[ 16] =        -0.670012623624;
  BAS[ATNO][ 13].a[ 17] =         0.580044559700;     BAS[ATNO][ 13].d[ 17] =         0.347426157995;
  BAS[ATNO][ 13].a[ 18] =         0.243299762600;     BAS[ATNO][ 13].d[ 18] =        -0.142820102371;
  BAS[ATNO][ 13].a[ 19] =         0.096823725100;     BAS[ATNO][ 13].d[ 19] =         0.039679622295;

  // Basis function  15 L = p
  InitBFNGauss(BAS[ATNO][ 14]);
  BAS[ATNO][ 14].l  = 1;
  BAS[ATNO][ 14].ng = 20;
  BAS[ATNO][ 14].a[  0] =     28609.335767000000;     BAS[ATNO][ 14].d[  0] =         0.000007435455;
  BAS[ATNO][ 14].a[  1] =      6773.123636400000;     BAS[ATNO][ 14].d[  1] =         0.000066074564;
  BAS[ATNO][ 14].a[  2] =      2199.801107900000;     BAS[ATNO][ 14].d[  2] =         0.000380029972;
  BAS[ATNO][ 14].a[  3] =       841.502015900000;     BAS[ATNO][ 14].d[  3] =         0.001660186449;
  BAS[ATNO][ 14].a[  4] =       356.921102880000;     BAS[ATNO][ 14].d[  4] =         0.005784851432;
  BAS[ATNO][ 14].a[  5] =       162.711743510000;     BAS[ATNO][ 14].d[  5] =         0.015921358931;
  BAS[ATNO][ 14].a[  6] =        78.004264994000;     BAS[ATNO][ 14].d[  6] =         0.032686298193;
  BAS[ATNO][ 14].a[  7] =        38.682579997000;     BAS[ATNO][ 14].d[  7] =         0.045177838835;
  BAS[ATNO][ 14].a[  8] =        19.589158685000;     BAS[ATNO][ 14].d[  8] =         0.033668416357;
  BAS[ATNO][ 14].a[  9] =         9.799086341700;     BAS[ATNO][ 14].d[  9] =         0.009677029071;
  BAS[ATNO][ 14].a[ 10] =       261.377868690000;     BAS[ATNO][ 14].d[ 10] =         0.002568410269;
  BAS[ATNO][ 14].a[ 11] =       100.099321460000;     BAS[ATNO][ 14].d[ 11] =         0.018850947185;
  BAS[ATNO][ 14].a[ 12] =        44.012139363000;     BAS[ATNO][ 14].d[ 12] =         0.054652979507;
  BAS[ATNO][ 14].a[ 13] =        10.854010739000;     BAS[ATNO][ 14].d[ 13] =        -0.394923421153;
  BAS[ATNO][ 14].a[ 14] =         5.435193018200;     BAS[ATNO][ 14].d[ 14] =        -0.899108686855;
  BAS[ATNO][ 14].a[ 15] =         2.706280554200;     BAS[ATNO][ 14].d[ 15] =         3.198723219854;
  BAS[ATNO][ 14].a[ 16] =         1.319563340800;     BAS[ATNO][ 14].d[ 16] =        -2.807297597401;
  BAS[ATNO][ 14].a[ 17] =         0.580044559700;     BAS[ATNO][ 14].d[ 17] =         0.348406016758;
  BAS[ATNO][ 14].a[ 18] =         0.243299762600;     BAS[ATNO][ 14].d[ 18] =        -0.161415113141;
  BAS[ATNO][ 14].a[ 19] =         0.096823725100;     BAS[ATNO][ 14].d[ 19] =         0.044275100311;

  // Basis function  16 L = p
  InitBFNGauss(BAS[ATNO][ 15]);
  BAS[ATNO][ 15].l  = 1;
  BAS[ATNO][ 15].ng = 20;
  BAS[ATNO][ 15].a[  0] =     28609.335767000000;     BAS[ATNO][ 15].d[  0] =        -0.000004112228;
  BAS[ATNO][ 15].a[  1] =      6773.123636400000;     BAS[ATNO][ 15].d[  1] =        -0.000036542981;
  BAS[ATNO][ 15].a[  2] =      2199.801107900000;     BAS[ATNO][ 15].d[  2] =        -0.000210178127;
  BAS[ATNO][ 15].a[  3] =       841.502015900000;     BAS[ATNO][ 15].d[  3] =        -0.000918177259;
  BAS[ATNO][ 15].a[  4] =       356.921102880000;     BAS[ATNO][ 15].d[  4] =        -0.003199350915;
  BAS[ATNO][ 15].a[  5] =       162.711743510000;     BAS[ATNO][ 15].d[  5] =        -0.008805414426;
  BAS[ATNO][ 15].a[  6] =        78.004264994000;     BAS[ATNO][ 15].d[  6] =        -0.018077376617;
  BAS[ATNO][ 15].a[  7] =        38.682579997000;     BAS[ATNO][ 15].d[  7] =        -0.024985907016;
  BAS[ATNO][ 15].a[  8] =        19.589158685000;     BAS[ATNO][ 15].d[  8] =        -0.018620543660;
  BAS[ATNO][ 15].a[  9] =         9.799086341700;     BAS[ATNO][ 15].d[  9] =        -0.005351945883;
  BAS[ATNO][ 15].a[ 10] =       261.377868690000;     BAS[ATNO][ 15].d[ 10] =        -0.001761189531;
  BAS[ATNO][ 15].a[ 11] =       100.099321460000;     BAS[ATNO][ 15].d[ 11] =        -0.012926319146;
  BAS[ATNO][ 15].a[ 12] =        44.012139363000;     BAS[ATNO][ 15].d[ 12] =        -0.037476199388;
  BAS[ATNO][ 15].a[ 13] =        10.854010739000;     BAS[ATNO][ 15].d[ 13] =         0.270803696479;
  BAS[ATNO][ 15].a[ 14] =         5.435193018200;     BAS[ATNO][ 15].d[ 14] =         0.616529541920;
  BAS[ATNO][ 15].a[ 15] =         2.706280554200;     BAS[ATNO][ 15].d[ 15] =        -2.920604058067;
  BAS[ATNO][ 15].a[ 16] =         1.319563340800;     BAS[ATNO][ 15].d[ 16] =         4.304901775829;
  BAS[ATNO][ 15].a[ 17] =         0.580044559700;     BAS[ATNO][ 15].d[ 17] =        -2.923939954388;
  BAS[ATNO][ 15].a[ 18] =         0.243299762600;     BAS[ATNO][ 15].d[ 18] =         0.395141545919;
  BAS[ATNO][ 15].a[ 19] =         0.096823725100;     BAS[ATNO][ 15].d[ 19] =        -0.094446392421;

  // Basis function  17 L = p
  InitBFNGauss(BAS[ATNO][ 16]);
  BAS[ATNO][ 16].l  = 1;
  BAS[ATNO][ 16].ng = 20;
  BAS[ATNO][ 16].a[  0] =     28609.335767000000;     BAS[ATNO][ 16].d[  0] =         0.000002028152;
  BAS[ATNO][ 16].a[  1] =      6773.123636400000;     BAS[ATNO][ 16].d[  1] =         0.000018023011;
  BAS[ATNO][ 16].a[  2] =      2199.801107900000;     BAS[ATNO][ 16].d[  2] =         0.000103659926;
  BAS[ATNO][ 16].a[  3] =       841.502015900000;     BAS[ATNO][ 16].d[  3] =         0.000452845347;
  BAS[ATNO][ 16].a[  4] =       356.921102880000;     BAS[ATNO][ 16].d[  4] =         0.001577920994;
  BAS[ATNO][ 16].a[  5] =       162.711743510000;     BAS[ATNO][ 16].d[  5] =         0.004342833486;
  BAS[ATNO][ 16].a[  6] =        78.004264994000;     BAS[ATNO][ 16].d[  6] =         0.008915768493;
  BAS[ATNO][ 16].a[  7] =        38.682579997000;     BAS[ATNO][ 16].d[  7] =         0.012323058111;
  BAS[ATNO][ 16].a[  8] =        19.589158685000;     BAS[ATNO][ 16].d[  8] =         0.009183658669;
  BAS[ATNO][ 16].a[  9] =         9.799086341700;     BAS[ATNO][ 16].d[  9] =         0.002639581588;
  BAS[ATNO][ 16].a[ 10] =       261.377868690000;     BAS[ATNO][ 16].d[ 10] =         0.000951553517;
  BAS[ATNO][ 16].a[ 11] =       100.099321460000;     BAS[ATNO][ 16].d[ 11] =         0.006983964096;
  BAS[ATNO][ 16].a[ 12] =        44.012139363000;     BAS[ATNO][ 16].d[ 12] =         0.020248024827;
  BAS[ATNO][ 16].a[ 13] =        10.854010739000;     BAS[ATNO][ 16].d[ 13] =        -0.146312594632;
  BAS[ATNO][ 16].a[ 14] =         5.435193018200;     BAS[ATNO][ 16].d[ 14] =        -0.333104895239;
  BAS[ATNO][ 16].a[ 15] =         2.706280554200;     BAS[ATNO][ 16].d[ 15] =         1.797099814499;
  BAS[ATNO][ 16].a[ 16] =         1.319563340800;     BAS[ATNO][ 16].d[ 16] =        -3.344718142286;
  BAS[ATNO][ 16].a[ 17] =         0.580044559700;     BAS[ATNO][ 16].d[ 17] =         3.966454244964;
  BAS[ATNO][ 16].a[ 18] =         0.243299762600;     BAS[ATNO][ 16].d[ 18] =        -2.818217062294;
  BAS[ATNO][ 16].a[ 19] =         0.096823725100;     BAS[ATNO][ 16].d[ 19] =         0.386200270801;

  // Basis function  18 L = p
  InitBFNGauss(BAS[ATNO][ 17]);
  BAS[ATNO][ 17].l  = 1;
  BAS[ATNO][ 17].ng = 20;
  BAS[ATNO][ 17].a[  0] =     28609.335767000000;     BAS[ATNO][ 17].d[  0] =        -0.000000818509;
  BAS[ATNO][ 17].a[  1] =      6773.123636400000;     BAS[ATNO][ 17].d[  1] =        -0.000007273614;
  BAS[ATNO][ 17].a[  2] =      2199.801107900000;     BAS[ATNO][ 17].d[  2] =        -0.000041834423;
  BAS[ATNO][ 17].a[  3] =       841.502015900000;     BAS[ATNO][ 17].d[  3] =        -0.000182756485;
  BAS[ATNO][ 17].a[  4] =       356.921102880000;     BAS[ATNO][ 17].d[  4] =        -0.000636807458;
  BAS[ATNO][ 17].a[  5] =       162.711743510000;     BAS[ATNO][ 17].d[  5] =        -0.001752653501;
  BAS[ATNO][ 17].a[  6] =        78.004264994000;     BAS[ATNO][ 17].d[  6] =        -0.003598169930;
  BAS[ATNO][ 17].a[  7] =        38.682579997000;     BAS[ATNO][ 17].d[  7] =        -0.004973262504;
  BAS[ATNO][ 17].a[  8] =        19.589158685000;     BAS[ATNO][ 17].d[  8] =        -0.003706283367;
  BAS[ATNO][ 17].a[  9] =         9.799086341700;     BAS[ATNO][ 17].d[  9] =        -0.001065265782;
  BAS[ATNO][ 17].a[ 10] =       261.377868690000;     BAS[ATNO][ 17].d[ 10] =        -0.000388687723;
  BAS[ATNO][ 17].a[ 11] =       100.099321460000;     BAS[ATNO][ 17].d[ 11] =        -0.002852788678;
  BAS[ATNO][ 17].a[ 12] =        44.012139363000;     BAS[ATNO][ 17].d[ 12] =        -0.008270852367;
  BAS[ATNO][ 17].a[ 13] =        10.854010739000;     BAS[ATNO][ 17].d[ 13] =         0.059765329209;
  BAS[ATNO][ 17].a[ 14] =         5.435193018200;     BAS[ATNO][ 17].d[ 14] =         0.136065687135;
  BAS[ATNO][ 17].a[ 15] =         2.706280554200;     BAS[ATNO][ 17].d[ 15] =        -0.763400922767;
  BAS[ATNO][ 17].a[ 16] =         1.319563340800;     BAS[ATNO][ 17].d[ 16] =         1.549594346662;
  BAS[ATNO][ 17].a[ 17] =         0.580044559700;     BAS[ATNO][ 17].d[ 17] =        -2.303853327288;
  BAS[ATNO][ 17].a[ 18] =         0.243299762600;     BAS[ATNO][ 17].d[ 18] =         2.804091789655;
  BAS[ATNO][ 17].a[ 19] =         0.096823725100;     BAS[ATNO][ 17].d[ 19] =        -2.043625377819;

  // Basis function  19 L = d
  InitBFNGauss(BAS[ATNO][ 18]);
  BAS[ATNO][ 18].l  = 2;
  BAS[ATNO][ 18].ng = 10;
  BAS[ATNO][ 18].a[  0] =       665.350573860000;     BAS[ATNO][ 18].d[  0] =         0.000796935551;
  BAS[ATNO][ 18].a[  1] =       200.179953660000;     BAS[ATNO][ 18].d[  1] =         0.007301402227;
  BAS[ATNO][ 18].a[  2] =        77.545085570000;     BAS[ATNO][ 18].d[  2] =         0.037421604570;
  BAS[ATNO][ 18].a[  3] =        33.677854345000;     BAS[ATNO][ 18].d[  3] =         0.125874384503;
  BAS[ATNO][ 18].a[  4] =        15.624928334000;     BAS[ATNO][ 18].d[  4] =         0.291889070260;
  BAS[ATNO][ 18].a[  5] =         7.442786742300;     BAS[ATNO][ 18].d[  5] =         0.451236267595;
  BAS[ATNO][ 18].a[  6] =         3.533607353500;     BAS[ATNO][ 18].d[  6] =         0.469979140382;
  BAS[ATNO][ 18].a[  7] =         1.636372514200;     BAS[ATNO][ 18].d[  7] =        -0.438410616018;
  BAS[ATNO][ 18].a[  8] =         0.678456847300;     BAS[ATNO][ 18].d[  8] =         0.229921353189;
  BAS[ATNO][ 18].a[  9] =         0.270000000000;     BAS[ATNO][ 18].d[  9] =        -0.076037975477;

  // Basis function  20 L = d
  InitBFNGauss(BAS[ATNO][ 19]);
  BAS[ATNO][ 19].l  = 2;
  BAS[ATNO][ 19].ng = 10;
  BAS[ATNO][ 19].a[  0] =       665.350573860000;     BAS[ATNO][ 19].d[  0] =        -0.000283891917;
  BAS[ATNO][ 19].a[  1] =       200.179953660000;     BAS[ATNO][ 19].d[  1] =        -0.002600974539;
  BAS[ATNO][ 19].a[  2] =        77.545085570000;     BAS[ATNO][ 19].d[  2] =        -0.013330677814;
  BAS[ATNO][ 19].a[  3] =        33.677854345000;     BAS[ATNO][ 19].d[  3] =        -0.044840163434;
  BAS[ATNO][ 19].a[  4] =        15.624928334000;     BAS[ATNO][ 19].d[  4] =        -0.103979484522;
  BAS[ATNO][ 19].a[  5] =         7.442786742300;     BAS[ATNO][ 19].d[  5] =        -0.160743649840;
  BAS[ATNO][ 19].a[  6] =         3.533607353500;     BAS[ATNO][ 19].d[  6] =        -0.167420413205;
  BAS[ATNO][ 19].a[  7] =         1.636372514200;     BAS[ATNO][ 19].d[  7] =         1.447385995596;
  BAS[ATNO][ 19].a[  8] =         0.678456847300;     BAS[ATNO][ 19].d[  8] =        -0.474600445851;
  BAS[ATNO][ 19].a[  9] =         0.270000000000;     BAS[ATNO][ 19].d[  9] =         0.145045610967;

  // Basis function  21 L = d
  InitBFNGauss(BAS[ATNO][ 20]);
  BAS[ATNO][ 20].l  = 2;
  BAS[ATNO][ 20].ng = 10;
  BAS[ATNO][ 20].a[  0] =       665.350573860000;     BAS[ATNO][ 20].d[  0] =         0.000123294487;
  BAS[ATNO][ 20].a[  1] =       200.179953660000;     BAS[ATNO][ 20].d[  1] =         0.001129605320;
  BAS[ATNO][ 20].a[  2] =        77.545085570000;     BAS[ATNO][ 20].d[  2] =         0.005789524025;
  BAS[ATNO][ 20].a[  3] =        33.677854345000;     BAS[ATNO][ 20].d[  3] =         0.019474118803;
  BAS[ATNO][ 20].a[  4] =        15.624928334000;     BAS[ATNO][ 20].d[  4] =         0.045158373198;
  BAS[ATNO][ 20].a[  5] =         7.442786742300;     BAS[ATNO][ 20].d[  5] =         0.069811095545;
  BAS[ATNO][ 20].a[  6] =         3.533607353500;     BAS[ATNO][ 20].d[  6] =         0.072710819209;
  BAS[ATNO][ 20].a[  7] =         1.636372514200;     BAS[ATNO][ 20].d[  7] =        -1.076037266562;
  BAS[ATNO][ 20].a[  8] =         0.678456847300;     BAS[ATNO][ 20].d[  8] =         1.734044714786;
  BAS[ATNO][ 20].a[  9] =         0.270000000000;     BAS[ATNO][ 20].d[  9] =        -0.280577759081;

  // Basis function  22 L = d
  InitBFNGauss(BAS[ATNO][ 21]);
  BAS[ATNO][ 21].l  = 2;
  BAS[ATNO][ 21].ng = 10;
  BAS[ATNO][ 21].a[  0] =       665.350573860000;     BAS[ATNO][ 21].d[  0] =        -0.000052469942;
  BAS[ATNO][ 21].a[  1] =       200.179953660000;     BAS[ATNO][ 21].d[  1] =        -0.000480721623;
  BAS[ATNO][ 21].a[  2] =        77.545085570000;     BAS[ATNO][ 21].d[  2] =        -0.002463824611;
  BAS[ATNO][ 21].a[  3] =        33.677854345000;     BAS[ATNO][ 21].d[  3] =        -0.008287522943;
  BAS[ATNO][ 21].a[  4] =        15.624928334000;     BAS[ATNO][ 21].d[  4] =        -0.019217868482;
  BAS[ATNO][ 21].a[  5] =         7.442786742300;     BAS[ATNO][ 21].d[  5] =        -0.029709229048;
  BAS[ATNO][ 21].a[  6] =         3.533607353500;     BAS[ATNO][ 21].d[  6] =        -0.030943252863;
  BAS[ATNO][ 21].a[  7] =         1.636372514200;     BAS[ATNO][ 21].d[  7] =         0.539612003933;
  BAS[ATNO][ 21].a[  8] =         0.678456847300;     BAS[ATNO][ 21].d[  8] =        -1.357179949242;
  BAS[ATNO][ 21].a[  9] =         0.270000000000;     BAS[ATNO][ 21].d[  9] =         1.544292417157;

  // Basis function  23 L = f
  InitBFNGauss(BAS[ATNO][ 22]);
  BAS[ATNO][ 22].l  = 3;
  BAS[ATNO][ 22].ng = 4;
  BAS[ATNO][ 22].a[  0] =        14.180116992000;     BAS[ATNO][ 22].d[  0] =         0.488939989791;
  BAS[ATNO][ 22].a[  1] =         4.539318368000;     BAS[ATNO][ 22].d[  1] =         0.659551127003;
  BAS[ATNO][ 22].a[  2] =         0.413000000000;     BAS[ATNO][ 22].d[  2] =        -0.000841950421;
  BAS[ATNO][ 22].a[  3] =         0.955700000000;     BAS[ATNO][ 22].d[  3] =         0.008561859978;

  // Basis function  24 L = f
  InitBFNGauss(BAS[ATNO][ 23]);
  BAS[ATNO][ 23].l  = 3;
  BAS[ATNO][ 23].ng = 4;
  BAS[ATNO][ 23].a[  0] =        14.180116992000;     BAS[ATNO][ 23].d[  0] =        -0.571282906594;
  BAS[ATNO][ 23].a[  1] =         4.539318368000;     BAS[ATNO][ 23].d[  1] =         0.304121047753;
  BAS[ATNO][ 23].a[  2] =         0.413000000000;     BAS[ATNO][ 23].d[  2] =        -0.252566476663;
  BAS[ATNO][ 23].a[  3] =         0.955700000000;     BAS[ATNO][ 23].d[  3] =         0.950006777686;

  // Basis function  25 L = f
  InitBFNGauss(BAS[ATNO][ 24]);
  BAS[ATNO][ 24].l  = 3;
  BAS[ATNO][ 24].ng = 4;
  BAS[ATNO][ 24].a[  0] =        14.180116992000;     BAS[ATNO][ 24].d[  0] =        -0.800911075404;
  BAS[ATNO][ 24].a[  1] =         4.539318368000;     BAS[ATNO][ 24].d[  1] =         0.859547012161;
  BAS[ATNO][ 24].a[  2] =         0.413000000000;     BAS[ATNO][ 24].d[  2] =        -0.320106517930;
  BAS[ATNO][ 24].a[  3] =         0.955700000000;     BAS[ATNO][ 24].d[  3] =        -0.488080248905;

  // Basis function  26 L = f
  InitBFNGauss(BAS[ATNO][ 25]);
  BAS[ATNO][ 25].l  = 3;
  BAS[ATNO][ 25].ng = 4;
  BAS[ATNO][ 25].a[  0] =        14.180116992000;     BAS[ATNO][ 25].d[  0] =        -0.394686344818;
  BAS[ATNO][ 25].a[  1] =         4.539318368000;     BAS[ATNO][ 25].d[  1] =         0.515139094569;
  BAS[ATNO][ 25].a[  2] =         0.413000000000;     BAS[ATNO][ 25].d[  2] =         1.330457365770;
  BAS[ATNO][ 25].a[  3] =         0.955700000000;     BAS[ATNO][ 25].d[  3] =        -0.995844095014;

  // Basis function  27 L = g
  InitBFNGauss(BAS[ATNO][ 26]);
  BAS[ATNO][ 26].l  = 4;
  BAS[ATNO][ 26].ng = 1;
  BAS[ATNO][ 26].a[  0] =         0.739500000000;     BAS[ATNO][ 26].d[  0] =         1.000000000000;

-------
TIMINGS
-------

Total SCF time: 0 days 0 hours 0 min 2 sec 

Total time                  ....       2.428 sec
Sum of individual times     ....       2.232 sec  ( 91.9%)

Fock matrix formation       ....       1.485 sec  ( 61.2%)
  XC integration            ....       0.059 sec  (  3.9% of F)
    Basis function eval.    ....       0.009 sec  ( 15.3% of XC)
    Density eval.           ....       0.004 sec  (  7.6% of XC)
    XC-Functional eval.     ....       0.003 sec  (  4.5% of XC)
    XC-Potential eval.      ....       0.009 sec  ( 14.5% of XC)
Diagonalization             ....       0.006 sec  (  0.3%)
Density matrix formation    ....       0.002 sec  (  0.1%)
Population analysis         ....       0.001 sec  (  0.0%)
Initial guess               ....       0.072 sec  (  3.0%)
Orbital Transformation      ....       0.000 sec  (  0.0%)
Orbital Orthonormalization  ....       0.000 sec  (  0.0%)
DIIS solution               ....       0.001 sec  (  0.0%)
SOSCF solution              ....       0.001 sec  (  0.1%)
Grid generation             ....       0.664 sec  ( 27.3%)

-------------------------   --------------------
FINAL SINGLE POINT ENERGY     -1270.768180899019
-------------------------   --------------------


                            ***************************************
                            *     ORCA property calculations      *
                            ***************************************

                                    ---------------------
                                    Active property flags
                                    ---------------------
   (+) Dipole Moment


------------------------------------------------------------------------------
                       ORCA ELECTRIC PROPERTIES CALCULATION
------------------------------------------------------------------------------

Dipole Moment Calculation                       ... on
Quadrupole Moment Calculation                   ... off
Polarizability Calculation                      ... off
GBWName                                         ... Kr_def2-qzvpp_4385.151648_.gbw
Electron density file                           ... Kr_def2-qzvpp_4385.151648_.scfp
The origin for moment calculation is the CENTER OF MASS  = ( 0.000000,  0.000000  0.000000)

-------------
DIPOLE MOMENT
-------------
                                X             Y             Z
Electronic contribution:      0.00000       0.00000       0.00000
Nuclear contribution   :      0.00000       0.00000       0.00000
                        -----------------------------------------
Total Dipole Moment    :      0.00000       0.00000       0.00000
                        -----------------------------------------
Magnitude (a.u.)       :      0.00000
Magnitude (Debye)      :      0.00000



--------------------
Rotational spectrum 
--------------------
 
Rotational constants in cm-1:     0.000000     0.000000     0.000000 
Rotational constants in MHz :     0.000000     0.000000     0.000000 

 Dipole components along the rotational axes: 
x,y,z [a.u.] :     0.000000     0.000000     0.000000 
x,y,z [Debye]:     0.000000     0.000000     0.000000 

 

Timings for individual modules:

Sum of individual times         ...        3.740 sec (=   0.062 min)
GTO integral calculation        ...        0.562 sec (=   0.009 min)  15.0 %
Relativistic integrals          ...        0.477 sec (=   0.008 min)  12.8 %
SCF iterations                  ...        2.702 sec (=   0.045 min)  72.2 %
                             ****ORCA TERMINATED NORMALLY****
TOTAL RUN TIME: 0 days 0 hours 0 minutes 4 seconds 58 msec
