
                                 *****************
                                 * O   R   C   A *
                                 *****************

           --- An Ab Initio, DFT and Semiempirical electronic structure package ---

                  #######################################################
                  #                        -***-                        #
                  #          Department of theory and spectroscopy      #
                  #               Directorship: Frank Neese             #
                  #        Max Planck Institute fuer Kohlenforschung    #
                  #                Kaiser Wilhelm Platz 1               #
                  #                 D-45470 Muelheim/Ruhr               #
                  #                      Germany                        #
                  #                                                     #
                  #                  All rights reserved                #
                  #                        -***-                        #
                  #######################################################


                         Program Version 4.2.1 -  RELEASE  -


 With contributions from (in alphabetic order):
   Daniel Aravena         : Magnetic Suceptibility
   Michael Atanasov       : Ab Initio Ligand Field Theory (pilot matlab implementation)
   Alexander A. Auer      : GIAO ZORA, VPT2
   Ute Becker             : Parallelization
   Giovanni Bistoni       : ED, misc. LED, open-shell LED, HFLD
   Martin Brehm           : Molecular dynamics
   Dmytro Bykov           : SCF Hessian
   Vijay G. Chilkuri      : MRCI spin determinant printing, contributions to CSF-ICE
   Dipayan Datta          : RHF DLPNO-CCSD density
   Achintya Kumar Dutta   : EOM-CC, STEOM-CC
   Dmitry Ganyushin       : Spin-Orbit,Spin-Spin,Magnetic field MRCI
   Miquel Garcia          : C-PCM Hessian, Gaussian charge scheme
   Yang Guo               : DLPNO-NEVPT2, CIM, IAO-localization
   Andreas Hansen         : Spin unrestricted coupled pair/coupled cluster methods
   Benjamin Helmich-Paris : CASSCF linear response (MC-RPA)
   Lee Huntington         : MR-EOM, pCC
   Robert Izsak           : Overlap fitted RIJCOSX, COSX-SCS-MP3, EOM
   Christian Kollmar      : KDIIS, OOCD, Brueckner-CCSD(T), CCSD density
   Simone Kossmann        : Meta GGA functionals, TD-DFT gradient, OOMP2, MP2 Hessian
   Martin Krupicka        : AUTO-CI
   Lucas Lang             : DCDCAS
   Dagmar Lenk            : GEPOL surface, SMD
   Dimitrios Liakos       : Extrapolation schemes; Compound Job, initial MDCI parallelization
   Dimitrios Manganas     : Further ROCIS development; embedding schemes
   Dimitrios Pantazis     : SARC Basis sets
   Taras Petrenko         : DFT Hessian,TD-DFT gradient, ASA, ECA, R-Raman, ABS, FL, XAS/XES, NRVS
   Peter Pinski           : DLPNO-MP2, DLPNO-MP2 Gradient
   Christoph Reimann      : Effective Core Potentials
   Marius Retegan         : Local ZFS, SOC
   Christoph Riplinger    : Optimizer, TS searches, QM/MM, DLPNO-CCSD(T), (RO)-DLPNO pert. Triples
   Tobias Risthaus        : Range-separated hybrids, TD-DFT gradient, RPA, STAB
   Michael Roemelt        : Original ROCIS implementation
   Masaaki Saitow         : Open-shell DLPNO-CCSD energy and density
   Barbara Sandhoefer     : DKH picture change effects
   Avijit Sen             : IP-ROCIS
   Kantharuban Sivalingam : CASSCF convergence, NEVPT2, FIC-MRCI
   Bernardo de Souza      : ESD, SOC TD-DFT
   Georgi Stoychev        : AutoAux, RI-MP2 NMR
   Willem Van den Heuvel  : Paramagnetic NMR
   Boris Wezisla          : Elementary symmetry handling
   Frank Wennmohs         : Technical directorship


 We gratefully acknowledge several colleagues who have allowed us to
 interface, adapt or use parts of their codes:
   Stefan Grimme, W. Hujo, H. Kruse,             : VdW corrections, initial TS optimization,
                  C. Bannwarth                     DFT functionals, gCP, sTDA/sTD-DF
   Ed Valeev, F. Pavosevic, A. Kumar             : LibInt (2-el integral package), F12 methods
   Garnet Chan, S. Sharma, J. Yang, R. Olivares  : DMRG
   Ulf Ekstrom                                   : XCFun DFT Library
   Mihaly Kallay                                 : mrcc  (arbitrary order and MRCC methods)
   Andreas Klamt, Michael Diedenhofen            : otool_cosmo (COSMO solvation model)
   Jiri Pittner, Ondrej Demel                    : Mk-CCSD
   Frank Weinhold                                : gennbo (NPA and NBO analysis)
   Christopher J. Cramer and Donald G. Truhlar   : smd solvation model
   Lars Goerigk                                  : TD-DFT with DH, B97 family of functionals
   V. Asgeirsson, H. Jonsson                     : NEB implementation
   FAccTs GmbH                                   : IRC, NEB, NEB-TS, Multilevel, MM, QM/MM, CI optimization
   S Lehtola, MJT Oliveira, MAL Marques          : LibXC Library


 Your calculation uses the libint2 library for the computation of 2-el integrals
 For citations please refer to: http://libint.valeyev.net

 Your ORCA version has been built with support for libXC version: 4.2.3
 For citations please refer to: https://tddft.org/programs/libxc/

 This ORCA versions uses:
   CBLAS   interface :  Fast vector & matrix operations
   LAPACKE interface :  Fast linear algebra routines
   SCALAPACK package :  Parallel linear algebra routines


----- Orbital basis set information -----
Your calculation utilizes the basis: def2-TZVP
   F. Weigend and R. Ahlrichs, Phys. Chem. Chem. Phys. 7, 3297 (2005).

================================================================================
                                        WARNINGS
                       Please study these warnings very carefully!
================================================================================


INFO   : the flag for use of LIBINT has been found!

================================================================================
                                       INPUT FILE
================================================================================
NAME = Kr_def2-tzvp_68.5179945_.inp
|  1> ! LDA def2-tzvp nori grid5 finalgrid6 verytightscf
|  2> %Pal NProcs 18 End
|  3> 
|  4> % REL
|  5>   Method ZORA
|  6>   ModelPot 1, 0, 0, 0
|  7>   velit 68.5179945
|  8> END
|  9> 
| 10> *xyz 34 1
| 11> Kr 0.0 0.0 0.0
| 12> **                         ****END OF INPUT****
================================================================================

                       ****************************
                       * Single Point Calculation *
                       ****************************

---------------------------------
CARTESIAN COORDINATES (ANGSTROEM)
---------------------------------
  Kr     0.000000    0.000000    0.000000

----------------------------
CARTESIAN COORDINATES (A.U.)
----------------------------
  NO LB      ZA    FRAG     MASS         X           Y           Z
   0 Kr   36.0000    0    83.800    0.000000    0.000000    0.000000

--------------------------------
INTERNAL COORDINATES (ANGSTROEM)
--------------------------------
 Kr     0   0   0     0.000000000000     0.00000000     0.00000000

---------------------------
INTERNAL COORDINATES (A.U.)
---------------------------
 Kr     0   0   0     0.000000000000     0.00000000     0.00000000

---------------------
BASIS SET INFORMATION
---------------------
There are 1 groups of distinct atoms

 Group   1 Type Kr  : 17s13p8d1f contracted to 6s5p4d1f pattern {842111/64111/5111/1}

Atom   0Kr   basis set group =>   1


           ************************************************************
           *        Program running with 18 parallel MPI-processes    *
           *              working on a common directory               *
           ************************************************************
------------------------------------------------------------------------------
                           ORCA GTO INTEGRAL CALCULATION
------------------------------------------------------------------------------

                         BASIS SET STATISTICS AND STARTUP INFO

 # of primitive gaussian shells          ...   39
 # of primitive gaussian functions       ...  103
 # of contracted shells                  ...   16
 # of contracted basis functions         ...   48
 Highest angular momentum                ...    3
 Maximum contraction depth               ...    8
 Integral package used                   ... LIBINT
 Integral threshhold            Thresh   ...  1.000e-12
 Primitive cut-off              TCut     ...  1.000e-14


------------------------------ INTEGRAL EVALUATION ----------------------------


 * One electron integrals 
 Pre-screening matrix                    ... done
 Shell pair data                         ... done (   0.000 sec)



           ************************************************************
           *        Program running with 18 parallel MPI-processes    *
           *              working on a common directory               *
           ************************************************************
------------------------------------------------------------------------------
                          ORCA RELATIVISTIC HAMILTONIAN
------------------------------------------------------------------------------

Relativistic Method            ... ZORA(MP)
Treatment of potential         ... Van Wuellen
Nucleus model                  ... Point Nucleus
Speed of light used            ...  68.51799450000000


            *************************************************
            *         ZERO ORDER REGULAR APPROXIMATION      *
            *                     ZORA(MP)                  *
            *            Programmed by FN according to      *
            *                   C. van Wuellen              *
            *       J. Chem. Phys. (1998) vol 109, 392-399  *
            *************************************************

Terms included in model potential: +V(e,N)
Basis function cutoff value   ... 1.000000e-12
Loading the fitted atomic densities  (DKH4)  ... done
Calculating the cutoffs                      ... done
Number of fit functions                      ... 27
Setting up the integration grid ... done


           ************************************************************
           *        Program running with 18 parallel MPI-processes    *
           *              working on a common directory               *
           ************************************************************
-------------------------------------------------------------------------------
                                 ORCA SCF
-------------------------------------------------------------------------------

------------
SCF SETTINGS
------------
Hamiltonian:
 Density Functional     Method          .... DFT(GTOs)
 Exchange Functional    Exchange        .... Slater
   X-Alpha parameter    XAlpha          ....  0.666667
 Correlation Functional Correlation     .... VWN-5
 Gradients option       PostSCFGGA      .... off
   Density functional embedding theory  .... OFF

Relativistic Settings:
 Scalar relativistic method             .... ZORA
 Speed of light used       Velit        ....       68.5179945
Orbital energies will be scaled


General Settings:
 Integral files         IntName         .... Kr_def2-tzvp_68.5179945_
 Hartree-Fock type      HFTyp           .... RHF
 Total Charge           Charge          ....   34
 Multiplicity           Mult            ....    1
 Number of Electrons    NEL             ....    2
 Basis Dimension        Dim             ....   48
 Nuclear Repulsion      ENuc            ....      0.0000000000 Eh

Convergence Acceleration:
 DIIS                   CNVDIIS         .... on
   Start iteration      DIISMaxIt       ....    12
   Startup error        DIISStart       ....  0.200000
   # of expansion vecs  DIISMaxEq       ....     5
   Bias factor          DIISBfac        ....   1.050
   Max. coefficient     DIISMaxC        ....  10.000
 Newton-Raphson         CNVNR           .... off
 SOSCF                  CNVSOSCF        .... on
   Start iteration      SOSCFMaxIt      ....   150
   Startup grad/error   SOSCFStart      ....  0.003300
 Level Shifting         CNVShift        .... on
   Level shift para.    LevelShift      ....    0.2500
   Turn off err/grad.   ShiftErr        ....    0.0010
 Zerner damping         CNVZerner       .... off
 Static damping         CNVDamp         .... on
   Fraction old density DampFac         ....    0.7000
   Max. Damping (<1)    DampMax         ....    0.9800
   Min. Damping (>=0)   DampMin         ....    0.0000
   Turn off err/grad.   DampErr         ....    0.1000
 Fernandez-Rico         CNVRico         .... off

SCF Procedure:
 Maximum # iterations   MaxIter         ....   125
 SCF integral mode      SCFMode         .... Direct
   Integral package                     .... LIBINT
 Reset frequency        DirectResetFreq ....    20
 Integral Threshold     Thresh          ....  1.000e-12 Eh
 Primitive CutOff       TCut            ....  1.000e-14 Eh

Convergence Tolerance:
 Convergence Check Mode ConvCheckMode   .... Total+1el-Energy
 Convergence forced     ConvForced      .... 0
 Energy Change          TolE            ....  1.000e-09 Eh
 1-El. energy change                    ....  1.000e-06 Eh
 Orbital Gradient       TolG            ....  2.000e-06
 Orbital Rotation angle TolX            ....  2.000e-06
 DIIS Error             TolErr          ....  1.000e-08


Diagonalization of the overlap matrix:
Smallest eigenvalue                        ... 2.275e-02
Time for diagonalization                   ...    0.001 sec
Threshold for overlap eigenvalues          ... 1.000e-08
Number of eigenvalues below threshold      ... 0
Time for construction of square roots      ...    0.001 sec
Total time needed                          ...    0.002 sec

-------------------
DFT GRID GENERATION
-------------------

General Integration Accuracy     IntAcc      ...  5.010
Radial Grid Type                 RadialGrid  ... Gauss-Chebyshev
Angular Grid (max. acc.)         AngularGrid ... Lebedev-434
Angular grid pruning method      GridPruning ... 3 (G Style)
Weight generation scheme         WeightScheme... Becke
Basis function cutoff            BFCut       ...    1.0000e-12
Integration weight cutoff        WCut        ...    1.0000e-14
Grids for H and He will be reduced by one unit

# of grid points (after initial pruning)     ...  16106 (   0.0 sec)
# of grid points (after weights+screening)   ...  16106 (   0.0 sec)
Grid point division into batches done        ...    0.2 sec
Reduced shell lists constructed in    0.2 sec

Total number of grid points                  ...    16106
Total number of batches                      ...      252
Average number of points per batch           ...       63
Average number of grid points per atom       ...    16106
Average number of shells per batch           ...     0.53 ( 3.33%)
Average number of basis functions per batch  ...     1.60 ( 3.33%)
Average number of large shells per batch     ...     0.53 (100.00%)
Average number of large basis fcns per batch ...     1.60 (100.00%)
Maximum spatial batch extension              ...  17.34, 17.34, 17.34 au
Average spatial batch extension              ...   0.86,  0.87,  0.87 au

Time for grid setup =    0.250 sec

------------------------------
INITIAL GUESS: MODEL POTENTIAL
------------------------------
Loading ZORA relativistic densities                ... done
Calculating cut-offs                               ... done
Setting up the integral package                    ... done
Initializing the effective Hamiltonian             ... done
Starting the Coulomb interaction                   ... done (   0.0 sec)
Reading the grid                                   ... done
Mapping shells                                     ... done
Starting the XC term evaluation                    ... done (   0.0 sec)
  promolecular density results
     # of electrons  =     36.000000565
     EX              =    -91.042004939
     EC              =     -3.295965580
     EX+EC           =    -94.337970520
Transforming the Hamiltonian                       ... done (   0.0 sec)
Diagonalizing the Hamiltonian                      ... done (   0.0 sec)
Back transforming the eigenvectors                 ... done (   0.0 sec)
Now organizing SCF variables                       ... done
                      ------------------
                      INITIAL GUESS DONE (   0.3 sec)
                      ------------------
--------------
SCF ITERATIONS
--------------
ITER       Energy         Delta-E        Max-DP      RMS-DP      [F,P]     Damp
               ***  Starting incremental Fock matrix formation  ***
  0  -1417.1538172204   0.000000000000 0.00260068  0.00006718  3.4780992 0.7000
                      *** Initiating the SOSCF procedure ***
                      *** Re-Reading the Fockian *** 
                      *** Removing any level shift *** 
ITER      Energy       Delta-E        Grad      Rot      Max-DP    RMS-DP
  1  -1417.15791375  -0.0040965323  0.000294  0.000294  0.006068  0.000157
               *** Restarting incremental Fock matrix formation ***
  2  -1417.16745677  -0.0095430189  0.002188  0.000004  0.000012  0.000000
  3  -1417.16745679  -0.0000000212  0.000004  0.000000  0.000000  0.000000
                 **** Energy Check signals convergence ****
              ***Rediagonalizing the Fockian in SOSCF/NRSCF***

               *****************************************************
               *                     SUCCESS                       *
               *           SCF CONVERGED AFTER   4 CYCLES          *
               *****************************************************

Setting up the final grid:

General Integration Accuracy     IntAcc      ...  5.340
Radial Grid Type                 RadialGrid  ... Gauss-Chebyshev
Angular Grid (max. acc.)         AngularGrid ... Lebedev-590
Angular grid pruning method      GridPruning ... 3 (G Style)
Weight generation scheme         WeightScheme... Becke
Basis function cutoff            BFCut       ...    1.0000e-12
Integration weight cutoff        WCut        ...    1.0000e-14
Grids for H and He will be reduced by one unit

# of grid points (after initial pruning)     ...  24180 (   0.0 sec)
# of grid points (after weights+screening)   ...  24180 (   0.0 sec)
Grid point division into batches done        ...    0.4 sec
Reduced shell lists constructed in    0.4 sec

Total number of grid points                  ...    24180
Total number of batches                      ...      378
Average number of points per batch           ...       63
Average number of grid points per atom       ...    24180
Average number of shells per batch           ...     0.14 ( 0.85%)
Average number of basis functions per batch  ...     0.41 ( 0.85%)
Average number of large shells per batch     ...     0.14 (100.00%)
Average number of large basis fcns per batch ...     0.41 (100.00%)
Maximum spatial batch extension              ...  17.58, 17.58, 17.58 au
Average spatial batch extension              ...   0.77,  0.77,  0.77 au

Final grid set up in    0.4 sec
Final integration                            ... done (   0.0 sec)
Change in XC energy                          ...    -0.000012302
Integrated number of electrons               ...     1.999999980
Previous integrated no of electrons          ...     2.000000022

----------------
TOTAL SCF ENERGY
----------------

Total Energy       :        -1417.16746909 Eh          -38563.08734 eV

Components:
Nuclear Repulsion  :            0.00000000 Eh               0.00000 eV
Electronic Energy  :        -1417.16746909 Eh          -38563.08734 eV
One Electron Energy:        -1443.01624750 Eh          -39266.46836 eV
Two Electron Energy:           25.84877840 Eh             703.38102 eV

Virial components:
Potential Energy   :        -2593.84859288 Eh          -70582.20854 eV
Kinetic Energy     :         1176.68112378 Eh           32019.12120 eV
Virial Ratio       :            2.20437682


DFT components:
N(Alpha)           :        0.999999990052 electrons
N(Beta)            :        0.999999990052 electrons
N(Total)           :        1.999999980105 electrons
E(X)               :      -19.591055104031 Eh       
E(C)               :       -0.279909028458 Eh       
E(XC)              :      -19.870964132489 Eh       
DFET-embed. en.    :        0.000000000000 Eh       

---------------
SCF CONVERGENCE
---------------

  Last Energy change         ...    0.0000e+00  Tolerance :   1.0000e-09
  Last MAX-Density change    ...    0.0000e+00  Tolerance :   1.0000e-08
  Last RMS-Density change    ...    0.0000e+00  Tolerance :   1.0000e-09
  Last Orbital Gradient      ...    2.7453e-11  Tolerance :   2.0000e-06
  Last Orbital Rotation      ...    0.0000e+00  Tolerance :   2.0000e-06

================================================================================
                                        WARNING
Number of found core electrons (2) does not match given number of chemical core electrons (18)
================================================================================
             **** THE GBW FILE WAS UPDATED (Kr_def2-tzvp_68.5179945_.gbw) ****
             **** DENSITY FILE WAS UPDATED (Kr_def2-tzvp_68.5179945_.scfp) ****
             **** ENERGY FILE WAS UPDATED (Kr_def2-tzvp_68.5179945_.en.tmp) ****
             **** THE GBW FILE WAS UPDATED (Kr_def2-tzvp_68.5179945_.gbw) ****
             **** DENSITY FILE WAS UPDATED (Kr_def2-tzvp_68.5179945_.scfp) ****
----------------
ORBITAL ENERGIES
----------------

  NO   OCC          E(Eh)            E(eV) 
   0   2.0000    -688.998880    -18748.6127 
   1   0.0000    -158.858096     -4322.7486 
   2   0.0000    -152.566591     -4151.5480 
   3   0.0000    -152.566591     -4151.5480 
   4   0.0000    -152.566591     -4151.5480 
   5   0.0000     -65.809311     -1790.7624 
   6   0.0000     -60.085375     -1635.0062 
   7   0.0000     -60.085375     -1635.0062 
   8   0.0000     -60.085375     -1635.0062 
   9   0.0000     -58.701700     -1597.3545 
  10   0.0000     -58.701700     -1597.3545 
  11   0.0000     -58.701700     -1597.3545 
  12   0.0000     -58.701700     -1597.3545 
  13   0.0000     -58.701700     -1597.3545 
  14   0.0000     -34.858863      -948.5579 
  15   0.0000     -26.885366      -731.5880 
  16   0.0000     -26.885366      -731.5880 
  17   0.0000     -26.885366      -731.5880 
  18   0.0000     -26.885366      -731.5880 
  19   0.0000     -26.885366      -731.5880 
  20   0.0000     -26.752406      -727.9700 
  21   0.0000     -26.752406      -727.9700 
  22   0.0000     -26.752406      -727.9700 
  23   0.0000     -20.609880      -560.8234 
  24   0.0000     -16.853981      -458.6201 
  25   0.0000     -16.853981      -458.6201 
  26   0.0000     -16.853981      -458.6201 
  27   0.0000     -16.853981      -458.6201 
  28   0.0000     -16.853981      -458.6201 
  29   0.0000     -16.853981      -458.6201 
  30   0.0000     -16.853981      -458.6201 
  31   0.0000     -15.992054      -435.1659 
  32   0.0000     -15.992054      -435.1659 
  33   0.0000     -15.992054      -435.1659 
  34   0.0000     -15.992054      -435.1659 
  35   0.0000     -15.992054      -435.1659 
  36   0.0000     -14.423977      -392.4964 
  37   0.0000     -14.423977      -392.4964 
  38   0.0000     -14.423977      -392.4964 
  39   0.0000     -12.208647      -332.2142 
  40   0.0000     -10.279700      -279.7249 
  41   0.0000     -10.279700      -279.7249 
  42   0.0000     -10.279700      -279.7249 
  43   0.0000     -10.279700      -279.7249 
  44   0.0000     -10.279700      -279.7249 
  45   0.0000      -8.433572      -229.4892 
  46   0.0000      -8.433572      -229.4892 
  47   0.0000      -8.433572      -229.4892 

                    ********************************
                    * MULLIKEN POPULATION ANALYSIS *
                    ********************************

-----------------------
MULLIKEN ATOMIC CHARGES
-----------------------
   0 Kr:   34.000000
Sum of atomic charges:   34.0000000

--------------------------------
MULLIKEN REDUCED ORBITAL CHARGES
--------------------------------
  0 Krs       :     2.000000  s :     2.000000
      pz      :     0.000000  p :     0.000000
      px      :     0.000000
      py      :     0.000000
      dz2     :     0.000000  d :     0.000000
      dxz     :     0.000000
      dyz     :     0.000000
      dx2y2   :     0.000000
      dxy     :     0.000000
      f0      :     0.000000  f :     0.000000
      f+1     :     0.000000
      f-1     :     0.000000
      f+2     :     0.000000
      f-2     :     0.000000
      f+3     :     0.000000
      f-3     :     0.000000


                     *******************************
                     * LOEWDIN POPULATION ANALYSIS *
                     *******************************

----------------------
LOEWDIN ATOMIC CHARGES
----------------------
   0 Kr:   34.000000

-------------------------------
LOEWDIN REDUCED ORBITAL CHARGES
-------------------------------
  0 Krs       :     2.000000  s :     2.000000
      pz      :     0.000000  p :     0.000000
      px      :     0.000000
      py      :     0.000000
      dz2     :     0.000000  d :     0.000000
      dxz     :     0.000000
      dyz     :     0.000000
      dx2y2   :     0.000000
      dxy     :     0.000000
      f0      :     0.000000  f :     0.000000
      f+1     :     0.000000
      f-1     :     0.000000
      f+2     :     0.000000
      f-2     :     0.000000
      f+3     :     0.000000
      f-3     :     0.000000


                      *****************************
                      * MAYER POPULATION ANALYSIS *
                      *****************************

  NA   - Mulliken gross atomic population
  ZA   - Total nuclear charge
  QA   - Mulliken gross atomic charge
  VA   - Mayer's total valence
  BVA  - Mayer's bonded valence
  FA   - Mayer's free valence

  ATOM       NA         ZA         QA         VA         BVA        FA
  0 Kr     2.0000    36.0000    34.0000     0.0000     0.0000     0.0000

  Mayer bond orders larger than 0.100000


--------------------------
ATOM BASIS FOR ELEMENT Kr
--------------------------
 NewGTO Kr
 S 17
    1     600250.975749999983         0.000235293115
    2      89976.650781000004         0.001824638436
    3      20476.814224999998         0.009494297173
    4       5796.155407800000         0.038673355061
    5       1887.591319600000         0.126589652706
    6        679.114585190000         0.303242031258
    7        264.382445110000         0.444582295253
    8        104.883685740000         0.245029156287
    9        641.473707640000         0.001327909357
   10        199.575248200000         0.006241591568
   11         33.545462954000        -0.028044306373
   12         14.683955144000        -0.027790608158
   13         22.603101860000        -0.035790486643
   14          4.065068299100         0.100433490338
   15          1.961102706000        -0.085870134532
   16          0.524651479800         0.033158214195
   17          0.193323995100        -0.012483822921
 S 17
    1     600250.975749999983         0.000069178619
    2      89976.650781000004         0.000536462646
    3      20476.814224999998         0.002791421950
    4       5796.155407800000         0.011370367941
    5       1887.591319600000         0.037218672300
    6        679.114585190000         0.089156305810
    7        264.382445110000         0.130711810987
    8        104.883685740000         0.072041116133
    9        641.473707640000         0.027370666666
   10        199.575248200000         0.128650740636
   11         33.545462954000        -0.578044997970
   12         14.683955144000        -0.572815808776
   13         22.603101860000        -0.132763091862
   14          4.065068299100         0.372553210491
   15          1.961102706000        -0.279016702723
   16          0.524651479800         0.096421190623
   17          0.193323995100        -0.035133112440
 S 17
    1     600250.975749999983        -0.000032631477
    2      89976.650781000004        -0.000253048829
    3      20476.814224999998        -0.001316710608
    4       5796.155407800000        -0.005363389825
    5       1887.591319600000        -0.017556006046
    6        679.114585190000        -0.042054929612
    7        264.382445110000        -0.061656614869
    8        104.883685740000        -0.033981713807
    9        641.473707640000        -0.005500505755
   10        199.575248200000        -0.025854106803
   11         33.545462954000         0.116165962517
   12         14.683955144000         0.115115086205
   13         22.603101860000         0.740192651209
   14          4.065068299100        -2.077091944174
   15          1.961102706000         0.899048223387
   16          0.524651479800        -0.255913762034
   17          0.193323995100         0.088472868017
 S 17
    1     600250.975749999983        -0.000027184612
    2      89976.650781000004        -0.000210809771
    3      20476.814224999998        -0.001096924505
    4       5796.155407800000        -0.004468129667
    5       1887.591319600000        -0.014625547277
    6        679.114585190000        -0.035035096232
    7        264.382445110000        -0.051364856754
    8        104.883685740000        -0.028309466318
    9        641.473707640000         0.011790651065
   10        199.575248200000         0.055419767835
   11         33.545462954000        -0.249008434985
   12         14.683955144000        -0.246755821050
   13         22.603101860000         0.988432947287
   14          4.065068299100        -2.773691563691
   15          1.961102706000         3.071083334929
   16          0.524651479800        -0.358718267416
   17          0.193323995100         0.117481486326
 S 17
    1     600250.975749999983        -0.000017445964
    2      89976.650781000004        -0.000135289026
    3      20476.814224999998        -0.000703960955
    4       5796.155407800000        -0.002867461536
    5       1887.591319600000        -0.009386073678
    6        679.114585190000        -0.022484081335
    7        264.382445110000        -0.032963848861
    8        104.883685740000        -0.018167849149
    9        641.473707640000         0.011191171641
   10        199.575248200000         0.052602026020
   11         33.545462954000        -0.236347943849
   12         14.683955144000        -0.234209860969
   13         22.603101860000         0.690059428537
   14          4.065068299100        -1.936410578616
   15          1.961102706000         3.242300242462
   16          0.524651479800        -2.413765738318
   17          0.193323995100         0.468250879557
 S 17
    1     600250.975749999983        -0.000007519070
    2      89976.650781000004        -0.000058308478
    3      20476.814224999998        -0.000303401491
    4       5796.155407800000        -0.001235852783
    5       1887.591319600000        -0.004045322016
    6        679.114585190000        -0.009690457624
    7        264.382445110000        -0.014207152862
    8        104.883685740000        -0.007830196380
    9        641.473707640000         0.005211372744
   10        199.575248200000         0.024495090726
   11         33.545462954000        -0.110059721376
   12         14.683955144000        -0.109064084171
   13         22.603101860000         0.301572677902
   14          4.065068299100        -0.846258306982
   15          1.961102706000         1.665660333432
   16          0.524651479800        -2.556752821643
   17          0.193323995100         2.213053422178
 P 13
    1       3232.958961400000         0.002759763497
    2        765.964426940000         0.022599906227
    3        246.339408100000         0.107545736920
    4         92.365283041000         0.312731852230
    5         37.199509551000         0.500330118070
    6         15.172166534000         0.276325938893
    7         60.931321698000         0.002328210150
    8          9.479260064600        -0.034480116119
    9          4.256468632600        -0.061030769422
   10          1.972931376200        -0.034506448863
   11          0.763371087200         0.073237638454
   12          0.309436255300        -0.049197218975
   13          0.115697044600         0.016471341579
 P 13
    1       3232.958961400000         0.000967062989
    2        765.964426940000         0.007919349937
    3        246.339408100000         0.037685657470
    4         92.365283041000         0.109585984535
    5         37.199509551000         0.175323262375
    6         15.172166534000         0.096828800298
    7         60.931321698000         0.024246609097
    8          9.479260064600        -0.359085238614
    9          4.256468632600        -0.635590910576
   10          1.972931376200        -0.359359474919
   11          0.763371087200         0.447586709296
   12          0.309436255300        -0.268882560928
   13          0.115697044600         0.085826360614
 P 13
    1       3232.958961400000         0.000264564332
    2        765.964426940000         0.002166536770
    3        246.339408100000         0.010309856650
    4         92.365283041000         0.029979994174
    5         37.199509551000         0.047964075030
    6         15.172166534000         0.026489946512
    7         60.931321698000         0.010051650472
    8          9.479260064600        -0.148862024114
    9          4.256468632600        -0.263489944121
   10          1.972931376200        -0.148975711248
   11          0.763371087200         1.674823869516
   12          0.309436255300        -0.772090521886
   13          0.115697044600         0.223206171344
 P 13
    1       3232.958961400000         0.000096165674
    2        765.964426940000         0.000787507773
    3        246.339408100000         0.003747498016
    4         92.365283041000         0.010897335675
    5         37.199509551000         0.017434313794
    6         15.172166534000         0.009628749008
    7         60.931321698000         0.003926198707
    8          9.479260064600        -0.058145862531
    9          4.256468632600        -0.102919802149
   10          1.972931376200        -0.058190268998
   11          0.763371087200         1.291370169802
   12          0.309436255300        -2.081949797944
   13          0.115697044600         0.443069992095
 P 13
    1       3232.958961400000         0.000038052415
    2        765.964426940000         0.000311614022
    3        246.339408100000         0.001482871625
    4         92.365283041000         0.004312036935
    5         37.199509551000         0.006898695907
    6         15.172166534000         0.003810061707
    7         60.931321698000         0.001549790009
    8          9.479260064600        -0.022951939911
    9          4.256468632600        -0.040625575263
   10          1.972931376200        -0.022969468493
   11          0.763371087200         0.622198849532
   12          0.309436255300        -1.605034433964
   13          0.115697044600         1.699154977496
 D 8
    1        186.417609040000         0.010629222152
    2         55.274124345000         0.074540575581
    3         20.283219120000         0.261426308478
    4          8.088453697600         0.498212819566
    5          3.221403385300         0.523348739688
    6          1.195217010200        -0.544761197039
    7          0.648000000000         0.379220774528
    8          0.251000000000        -0.095970692971
 D 8
    1        186.417609040000         0.003123149404
    2         55.274124345000         0.021902012286
    3         20.283219120000         0.076814032834
    4          8.088453697600         0.146388234999
    5          3.221403385300         0.153773839780
    6          1.195217010200        -1.774947872060
    7          0.648000000000         0.924564653782
    8          0.251000000000        -0.208052728634
 D 8
    1        186.417609040000         0.001410135118
    2         55.274124345000         0.009888991110
    3         20.283219120000         0.034682351460
    4          8.088453697600         0.066095842499
    5          3.221403385300         0.069430521480
    6          1.195217010200        -1.556341685505
    7          0.648000000000         2.240499688587
    8          0.251000000000        -0.295760339070
 D 8
    1        186.417609040000         0.000636284959
    2         55.274124345000         0.004462137157
    3         20.283219120000         0.015649463875
    4          8.088453697600         0.029823943762
    5          3.221403385300         0.031328626578
    6          1.195217010200        -0.878212796046
    7          0.648000000000         1.768308160449
    8          0.251000000000        -1.599786413587
 F 1
    1          0.628000000000         1.000000000000
 end
  // -----------------------------------------------
  // The basis set
  // -----------------------------------------------
  BAS[ATNO] = new BFNGauss[NSH];
  // Basis function   1 L = s
  InitBFNGauss(BAS[ATNO][  0]);
  BAS[ATNO][  0].l  = 0;
  BAS[ATNO][  0].ng = 17;
  BAS[ATNO][  0].a[  0] =    600250.975749999983;     BAS[ATNO][  0].d[  0] =         0.000235293115;
  BAS[ATNO][  0].a[  1] =     89976.650781000004;     BAS[ATNO][  0].d[  1] =         0.001824638436;
  BAS[ATNO][  0].a[  2] =     20476.814224999998;     BAS[ATNO][  0].d[  2] =         0.009494297173;
  BAS[ATNO][  0].a[  3] =      5796.155407800000;     BAS[ATNO][  0].d[  3] =         0.038673355061;
  BAS[ATNO][  0].a[  4] =      1887.591319600000;     BAS[ATNO][  0].d[  4] =         0.126589652706;
  BAS[ATNO][  0].a[  5] =       679.114585190000;     BAS[ATNO][  0].d[  5] =         0.303242031258;
  BAS[ATNO][  0].a[  6] =       264.382445110000;     BAS[ATNO][  0].d[  6] =         0.444582295253;
  BAS[ATNO][  0].a[  7] =       104.883685740000;     BAS[ATNO][  0].d[  7] =         0.245029156287;
  BAS[ATNO][  0].a[  8] =       641.473707640000;     BAS[ATNO][  0].d[  8] =         0.001327909357;
  BAS[ATNO][  0].a[  9] =       199.575248200000;     BAS[ATNO][  0].d[  9] =         0.006241591568;
  BAS[ATNO][  0].a[ 10] =        33.545462954000;     BAS[ATNO][  0].d[ 10] =        -0.028044306373;
  BAS[ATNO][  0].a[ 11] =        14.683955144000;     BAS[ATNO][  0].d[ 11] =        -0.027790608158;
  BAS[ATNO][  0].a[ 12] =        22.603101860000;     BAS[ATNO][  0].d[ 12] =        -0.035790486643;
  BAS[ATNO][  0].a[ 13] =         4.065068299100;     BAS[ATNO][  0].d[ 13] =         0.100433490338;
  BAS[ATNO][  0].a[ 14] =         1.961102706000;     BAS[ATNO][  0].d[ 14] =        -0.085870134532;
  BAS[ATNO][  0].a[ 15] =         0.524651479800;     BAS[ATNO][  0].d[ 15] =         0.033158214195;
  BAS[ATNO][  0].a[ 16] =         0.193323995100;     BAS[ATNO][  0].d[ 16] =        -0.012483822921;

  // Basis function   2 L = s
  InitBFNGauss(BAS[ATNO][  1]);
  BAS[ATNO][  1].l  = 0;
  BAS[ATNO][  1].ng = 17;
  BAS[ATNO][  1].a[  0] =    600250.975749999983;     BAS[ATNO][  1].d[  0] =        -0.000069178619;
  BAS[ATNO][  1].a[  1] =     89976.650781000004;     BAS[ATNO][  1].d[  1] =        -0.000536462646;
  BAS[ATNO][  1].a[  2] =     20476.814224999998;     BAS[ATNO][  1].d[  2] =        -0.002791421950;
  BAS[ATNO][  1].a[  3] =      5796.155407800000;     BAS[ATNO][  1].d[  3] =        -0.011370367941;
  BAS[ATNO][  1].a[  4] =      1887.591319600000;     BAS[ATNO][  1].d[  4] =        -0.037218672300;
  BAS[ATNO][  1].a[  5] =       679.114585190000;     BAS[ATNO][  1].d[  5] =        -0.089156305810;
  BAS[ATNO][  1].a[  6] =       264.382445110000;     BAS[ATNO][  1].d[  6] =        -0.130711810987;
  BAS[ATNO][  1].a[  7] =       104.883685740000;     BAS[ATNO][  1].d[  7] =        -0.072041116133;
  BAS[ATNO][  1].a[  8] =       641.473707640000;     BAS[ATNO][  1].d[  8] =        -0.027370666666;
  BAS[ATNO][  1].a[  9] =       199.575248200000;     BAS[ATNO][  1].d[  9] =        -0.128650740636;
  BAS[ATNO][  1].a[ 10] =        33.545462954000;     BAS[ATNO][  1].d[ 10] =         0.578044997970;
  BAS[ATNO][  1].a[ 11] =        14.683955144000;     BAS[ATNO][  1].d[ 11] =         0.572815808776;
  BAS[ATNO][  1].a[ 12] =        22.603101860000;     BAS[ATNO][  1].d[ 12] =         0.132763091862;
  BAS[ATNO][  1].a[ 13] =         4.065068299100;     BAS[ATNO][  1].d[ 13] =        -0.372553210491;
  BAS[ATNO][  1].a[ 14] =         1.961102706000;     BAS[ATNO][  1].d[ 14] =         0.279016702723;
  BAS[ATNO][  1].a[ 15] =         0.524651479800;     BAS[ATNO][  1].d[ 15] =        -0.096421190623;
  BAS[ATNO][  1].a[ 16] =         0.193323995100;     BAS[ATNO][  1].d[ 16] =         0.035133112440;

  // Basis function   3 L = s
  InitBFNGauss(BAS[ATNO][  2]);
  BAS[ATNO][  2].l  = 0;
  BAS[ATNO][  2].ng = 17;
  BAS[ATNO][  2].a[  0] =    600250.975749999983;     BAS[ATNO][  2].d[  0] =         0.000032631477;
  BAS[ATNO][  2].a[  1] =     89976.650781000004;     BAS[ATNO][  2].d[  1] =         0.000253048829;
  BAS[ATNO][  2].a[  2] =     20476.814224999998;     BAS[ATNO][  2].d[  2] =         0.001316710608;
  BAS[ATNO][  2].a[  3] =      5796.155407800000;     BAS[ATNO][  2].d[  3] =         0.005363389825;
  BAS[ATNO][  2].a[  4] =      1887.591319600000;     BAS[ATNO][  2].d[  4] =         0.017556006046;
  BAS[ATNO][  2].a[  5] =       679.114585190000;     BAS[ATNO][  2].d[  5] =         0.042054929612;
  BAS[ATNO][  2].a[  6] =       264.382445110000;     BAS[ATNO][  2].d[  6] =         0.061656614869;
  BAS[ATNO][  2].a[  7] =       104.883685740000;     BAS[ATNO][  2].d[  7] =         0.033981713807;
  BAS[ATNO][  2].a[  8] =       641.473707640000;     BAS[ATNO][  2].d[  8] =         0.005500505755;
  BAS[ATNO][  2].a[  9] =       199.575248200000;     BAS[ATNO][  2].d[  9] =         0.025854106803;
  BAS[ATNO][  2].a[ 10] =        33.545462954000;     BAS[ATNO][  2].d[ 10] =        -0.116165962517;
  BAS[ATNO][  2].a[ 11] =        14.683955144000;     BAS[ATNO][  2].d[ 11] =        -0.115115086205;
  BAS[ATNO][  2].a[ 12] =        22.603101860000;     BAS[ATNO][  2].d[ 12] =        -0.740192651209;
  BAS[ATNO][  2].a[ 13] =         4.065068299100;     BAS[ATNO][  2].d[ 13] =         2.077091944174;
  BAS[ATNO][  2].a[ 14] =         1.961102706000;     BAS[ATNO][  2].d[ 14] =        -0.899048223387;
  BAS[ATNO][  2].a[ 15] =         0.524651479800;     BAS[ATNO][  2].d[ 15] =         0.255913762034;
  BAS[ATNO][  2].a[ 16] =         0.193323995100;     BAS[ATNO][  2].d[ 16] =        -0.088472868017;

  // Basis function   4 L = s
  InitBFNGauss(BAS[ATNO][  3]);
  BAS[ATNO][  3].l  = 0;
  BAS[ATNO][  3].ng = 17;
  BAS[ATNO][  3].a[  0] =    600250.975749999983;     BAS[ATNO][  3].d[  0] =        -0.000027184612;
  BAS[ATNO][  3].a[  1] =     89976.650781000004;     BAS[ATNO][  3].d[  1] =        -0.000210809771;
  BAS[ATNO][  3].a[  2] =     20476.814224999998;     BAS[ATNO][  3].d[  2] =        -0.001096924505;
  BAS[ATNO][  3].a[  3] =      5796.155407800000;     BAS[ATNO][  3].d[  3] =        -0.004468129667;
  BAS[ATNO][  3].a[  4] =      1887.591319600000;     BAS[ATNO][  3].d[  4] =        -0.014625547277;
  BAS[ATNO][  3].a[  5] =       679.114585190000;     BAS[ATNO][  3].d[  5] =        -0.035035096232;
  BAS[ATNO][  3].a[  6] =       264.382445110000;     BAS[ATNO][  3].d[  6] =        -0.051364856754;
  BAS[ATNO][  3].a[  7] =       104.883685740000;     BAS[ATNO][  3].d[  7] =        -0.028309466318;
  BAS[ATNO][  3].a[  8] =       641.473707640000;     BAS[ATNO][  3].d[  8] =         0.011790651065;
  BAS[ATNO][  3].a[  9] =       199.575248200000;     BAS[ATNO][  3].d[  9] =         0.055419767835;
  BAS[ATNO][  3].a[ 10] =        33.545462954000;     BAS[ATNO][  3].d[ 10] =        -0.249008434985;
  BAS[ATNO][  3].a[ 11] =        14.683955144000;     BAS[ATNO][  3].d[ 11] =        -0.246755821050;
  BAS[ATNO][  3].a[ 12] =        22.603101860000;     BAS[ATNO][  3].d[ 12] =         0.988432947287;
  BAS[ATNO][  3].a[ 13] =         4.065068299100;     BAS[ATNO][  3].d[ 13] =        -2.773691563691;
  BAS[ATNO][  3].a[ 14] =         1.961102706000;     BAS[ATNO][  3].d[ 14] =         3.071083334929;
  BAS[ATNO][  3].a[ 15] =         0.524651479800;     BAS[ATNO][  3].d[ 15] =        -0.358718267416;
  BAS[ATNO][  3].a[ 16] =         0.193323995100;     BAS[ATNO][  3].d[ 16] =         0.117481486326;

  // Basis function   5 L = s
  InitBFNGauss(BAS[ATNO][  4]);
  BAS[ATNO][  4].l  = 0;
  BAS[ATNO][  4].ng = 17;
  BAS[ATNO][  4].a[  0] =    600250.975749999983;     BAS[ATNO][  4].d[  0] =        -0.000017445964;
  BAS[ATNO][  4].a[  1] =     89976.650781000004;     BAS[ATNO][  4].d[  1] =        -0.000135289026;
  BAS[ATNO][  4].a[  2] =     20476.814224999998;     BAS[ATNO][  4].d[  2] =        -0.000703960955;
  BAS[ATNO][  4].a[  3] =      5796.155407800000;     BAS[ATNO][  4].d[  3] =        -0.002867461536;
  BAS[ATNO][  4].a[  4] =      1887.591319600000;     BAS[ATNO][  4].d[  4] =        -0.009386073678;
  BAS[ATNO][  4].a[  5] =       679.114585190000;     BAS[ATNO][  4].d[  5] =        -0.022484081335;
  BAS[ATNO][  4].a[  6] =       264.382445110000;     BAS[ATNO][  4].d[  6] =        -0.032963848861;
  BAS[ATNO][  4].a[  7] =       104.883685740000;     BAS[ATNO][  4].d[  7] =        -0.018167849149;
  BAS[ATNO][  4].a[  8] =       641.473707640000;     BAS[ATNO][  4].d[  8] =         0.011191171641;
  BAS[ATNO][  4].a[  9] =       199.575248200000;     BAS[ATNO][  4].d[  9] =         0.052602026020;
  BAS[ATNO][  4].a[ 10] =        33.545462954000;     BAS[ATNO][  4].d[ 10] =        -0.236347943849;
  BAS[ATNO][  4].a[ 11] =        14.683955144000;     BAS[ATNO][  4].d[ 11] =        -0.234209860969;
  BAS[ATNO][  4].a[ 12] =        22.603101860000;     BAS[ATNO][  4].d[ 12] =         0.690059428537;
  BAS[ATNO][  4].a[ 13] =         4.065068299100;     BAS[ATNO][  4].d[ 13] =        -1.936410578616;
  BAS[ATNO][  4].a[ 14] =         1.961102706000;     BAS[ATNO][  4].d[ 14] =         3.242300242462;
  BAS[ATNO][  4].a[ 15] =         0.524651479800;     BAS[ATNO][  4].d[ 15] =        -2.413765738318;
  BAS[ATNO][  4].a[ 16] =         0.193323995100;     BAS[ATNO][  4].d[ 16] =         0.468250879557;

  // Basis function   6 L = s
  InitBFNGauss(BAS[ATNO][  5]);
  BAS[ATNO][  5].l  = 0;
  BAS[ATNO][  5].ng = 17;
  BAS[ATNO][  5].a[  0] =    600250.975749999983;     BAS[ATNO][  5].d[  0] =         0.000007519070;
  BAS[ATNO][  5].a[  1] =     89976.650781000004;     BAS[ATNO][  5].d[  1] =         0.000058308478;
  BAS[ATNO][  5].a[  2] =     20476.814224999998;     BAS[ATNO][  5].d[  2] =         0.000303401491;
  BAS[ATNO][  5].a[  3] =      5796.155407800000;     BAS[ATNO][  5].d[  3] =         0.001235852783;
  BAS[ATNO][  5].a[  4] =      1887.591319600000;     BAS[ATNO][  5].d[  4] =         0.004045322016;
  BAS[ATNO][  5].a[  5] =       679.114585190000;     BAS[ATNO][  5].d[  5] =         0.009690457624;
  BAS[ATNO][  5].a[  6] =       264.382445110000;     BAS[ATNO][  5].d[  6] =         0.014207152862;
  BAS[ATNO][  5].a[  7] =       104.883685740000;     BAS[ATNO][  5].d[  7] =         0.007830196380;
  BAS[ATNO][  5].a[  8] =       641.473707640000;     BAS[ATNO][  5].d[  8] =        -0.005211372744;
  BAS[ATNO][  5].a[  9] =       199.575248200000;     BAS[ATNO][  5].d[  9] =        -0.024495090726;
  BAS[ATNO][  5].a[ 10] =        33.545462954000;     BAS[ATNO][  5].d[ 10] =         0.110059721376;
  BAS[ATNO][  5].a[ 11] =        14.683955144000;     BAS[ATNO][  5].d[ 11] =         0.109064084171;
  BAS[ATNO][  5].a[ 12] =        22.603101860000;     BAS[ATNO][  5].d[ 12] =        -0.301572677902;
  BAS[ATNO][  5].a[ 13] =         4.065068299100;     BAS[ATNO][  5].d[ 13] =         0.846258306982;
  BAS[ATNO][  5].a[ 14] =         1.961102706000;     BAS[ATNO][  5].d[ 14] =        -1.665660333432;
  BAS[ATNO][  5].a[ 15] =         0.524651479800;     BAS[ATNO][  5].d[ 15] =         2.556752821643;
  BAS[ATNO][  5].a[ 16] =         0.193323995100;     BAS[ATNO][  5].d[ 16] =        -2.213053422178;

  // Basis function   7 L = p
  InitBFNGauss(BAS[ATNO][  6]);
  BAS[ATNO][  6].l  = 1;
  BAS[ATNO][  6].ng = 13;
  BAS[ATNO][  6].a[  0] =      3232.958961400000;     BAS[ATNO][  6].d[  0] =         0.002759763497;
  BAS[ATNO][  6].a[  1] =       765.964426940000;     BAS[ATNO][  6].d[  1] =         0.022599906227;
  BAS[ATNO][  6].a[  2] =       246.339408100000;     BAS[ATNO][  6].d[  2] =         0.107545736920;
  BAS[ATNO][  6].a[  3] =        92.365283041000;     BAS[ATNO][  6].d[  3] =         0.312731852230;
  BAS[ATNO][  6].a[  4] =        37.199509551000;     BAS[ATNO][  6].d[  4] =         0.500330118070;
  BAS[ATNO][  6].a[  5] =        15.172166534000;     BAS[ATNO][  6].d[  5] =         0.276325938893;
  BAS[ATNO][  6].a[  6] =        60.931321698000;     BAS[ATNO][  6].d[  6] =         0.002328210150;
  BAS[ATNO][  6].a[  7] =         9.479260064600;     BAS[ATNO][  6].d[  7] =        -0.034480116119;
  BAS[ATNO][  6].a[  8] =         4.256468632600;     BAS[ATNO][  6].d[  8] =        -0.061030769422;
  BAS[ATNO][  6].a[  9] =         1.972931376200;     BAS[ATNO][  6].d[  9] =        -0.034506448863;
  BAS[ATNO][  6].a[ 10] =         0.763371087200;     BAS[ATNO][  6].d[ 10] =         0.073237638454;
  BAS[ATNO][  6].a[ 11] =         0.309436255300;     BAS[ATNO][  6].d[ 11] =        -0.049197218975;
  BAS[ATNO][  6].a[ 12] =         0.115697044600;     BAS[ATNO][  6].d[ 12] =         0.016471341579;

  // Basis function   8 L = p
  InitBFNGauss(BAS[ATNO][  7]);
  BAS[ATNO][  7].l  = 1;
  BAS[ATNO][  7].ng = 13;
  BAS[ATNO][  7].a[  0] =      3232.958961400000;     BAS[ATNO][  7].d[  0] =        -0.000967062989;
  BAS[ATNO][  7].a[  1] =       765.964426940000;     BAS[ATNO][  7].d[  1] =        -0.007919349937;
  BAS[ATNO][  7].a[  2] =       246.339408100000;     BAS[ATNO][  7].d[  2] =        -0.037685657470;
  BAS[ATNO][  7].a[  3] =        92.365283041000;     BAS[ATNO][  7].d[  3] =        -0.109585984535;
  BAS[ATNO][  7].a[  4] =        37.199509551000;     BAS[ATNO][  7].d[  4] =        -0.175323262375;
  BAS[ATNO][  7].a[  5] =        15.172166534000;     BAS[ATNO][  7].d[  5] =        -0.096828800298;
  BAS[ATNO][  7].a[  6] =        60.931321698000;     BAS[ATNO][  7].d[  6] =        -0.024246609097;
  BAS[ATNO][  7].a[  7] =         9.479260064600;     BAS[ATNO][  7].d[  7] =         0.359085238614;
  BAS[ATNO][  7].a[  8] =         4.256468632600;     BAS[ATNO][  7].d[  8] =         0.635590910576;
  BAS[ATNO][  7].a[  9] =         1.972931376200;     BAS[ATNO][  7].d[  9] =         0.359359474919;
  BAS[ATNO][  7].a[ 10] =         0.763371087200;     BAS[ATNO][  7].d[ 10] =        -0.447586709296;
  BAS[ATNO][  7].a[ 11] =         0.309436255300;     BAS[ATNO][  7].d[ 11] =         0.268882560928;
  BAS[ATNO][  7].a[ 12] =         0.115697044600;     BAS[ATNO][  7].d[ 12] =        -0.085826360614;

  // Basis function   9 L = p
  InitBFNGauss(BAS[ATNO][  8]);
  BAS[ATNO][  8].l  = 1;
  BAS[ATNO][  8].ng = 13;
  BAS[ATNO][  8].a[  0] =      3232.958961400000;     BAS[ATNO][  8].d[  0] =         0.000264564332;
  BAS[ATNO][  8].a[  1] =       765.964426940000;     BAS[ATNO][  8].d[  1] =         0.002166536770;
  BAS[ATNO][  8].a[  2] =       246.339408100000;     BAS[ATNO][  8].d[  2] =         0.010309856650;
  BAS[ATNO][  8].a[  3] =        92.365283041000;     BAS[ATNO][  8].d[  3] =         0.029979994174;
  BAS[ATNO][  8].a[  4] =        37.199509551000;     BAS[ATNO][  8].d[  4] =         0.047964075030;
  BAS[ATNO][  8].a[  5] =        15.172166534000;     BAS[ATNO][  8].d[  5] =         0.026489946512;
  BAS[ATNO][  8].a[  6] =        60.931321698000;     BAS[ATNO][  8].d[  6] =         0.010051650472;
  BAS[ATNO][  8].a[  7] =         9.479260064600;     BAS[ATNO][  8].d[  7] =        -0.148862024114;
  BAS[ATNO][  8].a[  8] =         4.256468632600;     BAS[ATNO][  8].d[  8] =        -0.263489944121;
  BAS[ATNO][  8].a[  9] =         1.972931376200;     BAS[ATNO][  8].d[  9] =        -0.148975711248;
  BAS[ATNO][  8].a[ 10] =         0.763371087200;     BAS[ATNO][  8].d[ 10] =         1.674823869516;
  BAS[ATNO][  8].a[ 11] =         0.309436255300;     BAS[ATNO][  8].d[ 11] =        -0.772090521886;
  BAS[ATNO][  8].a[ 12] =         0.115697044600;     BAS[ATNO][  8].d[ 12] =         0.223206171344;

  // Basis function  10 L = p
  InitBFNGauss(BAS[ATNO][  9]);
  BAS[ATNO][  9].l  = 1;
  BAS[ATNO][  9].ng = 13;
  BAS[ATNO][  9].a[  0] =      3232.958961400000;     BAS[ATNO][  9].d[  0] =        -0.000096165674;
  BAS[ATNO][  9].a[  1] =       765.964426940000;     BAS[ATNO][  9].d[  1] =        -0.000787507773;
  BAS[ATNO][  9].a[  2] =       246.339408100000;     BAS[ATNO][  9].d[  2] =        -0.003747498016;
  BAS[ATNO][  9].a[  3] =        92.365283041000;     BAS[ATNO][  9].d[  3] =        -0.010897335675;
  BAS[ATNO][  9].a[  4] =        37.199509551000;     BAS[ATNO][  9].d[  4] =        -0.017434313794;
  BAS[ATNO][  9].a[  5] =        15.172166534000;     BAS[ATNO][  9].d[  5] =        -0.009628749008;
  BAS[ATNO][  9].a[  6] =        60.931321698000;     BAS[ATNO][  9].d[  6] =        -0.003926198707;
  BAS[ATNO][  9].a[  7] =         9.479260064600;     BAS[ATNO][  9].d[  7] =         0.058145862531;
  BAS[ATNO][  9].a[  8] =         4.256468632600;     BAS[ATNO][  9].d[  8] =         0.102919802149;
  BAS[ATNO][  9].a[  9] =         1.972931376200;     BAS[ATNO][  9].d[  9] =         0.058190268998;
  BAS[ATNO][  9].a[ 10] =         0.763371087200;     BAS[ATNO][  9].d[ 10] =        -1.291370169802;
  BAS[ATNO][  9].a[ 11] =         0.309436255300;     BAS[ATNO][  9].d[ 11] =         2.081949797944;
  BAS[ATNO][  9].a[ 12] =         0.115697044600;     BAS[ATNO][  9].d[ 12] =        -0.443069992095;

  // Basis function  11 L = p
  InitBFNGauss(BAS[ATNO][ 10]);
  BAS[ATNO][ 10].l  = 1;
  BAS[ATNO][ 10].ng = 13;
  BAS[ATNO][ 10].a[  0] =      3232.958961400000;     BAS[ATNO][ 10].d[  0] =         0.000038052415;
  BAS[ATNO][ 10].a[  1] =       765.964426940000;     BAS[ATNO][ 10].d[  1] =         0.000311614022;
  BAS[ATNO][ 10].a[  2] =       246.339408100000;     BAS[ATNO][ 10].d[  2] =         0.001482871625;
  BAS[ATNO][ 10].a[  3] =        92.365283041000;     BAS[ATNO][ 10].d[  3] =         0.004312036935;
  BAS[ATNO][ 10].a[  4] =        37.199509551000;     BAS[ATNO][ 10].d[  4] =         0.006898695907;
  BAS[ATNO][ 10].a[  5] =        15.172166534000;     BAS[ATNO][ 10].d[  5] =         0.003810061707;
  BAS[ATNO][ 10].a[  6] =        60.931321698000;     BAS[ATNO][ 10].d[  6] =         0.001549790009;
  BAS[ATNO][ 10].a[  7] =         9.479260064600;     BAS[ATNO][ 10].d[  7] =        -0.022951939911;
  BAS[ATNO][ 10].a[  8] =         4.256468632600;     BAS[ATNO][ 10].d[  8] =        -0.040625575263;
  BAS[ATNO][ 10].a[  9] =         1.972931376200;     BAS[ATNO][ 10].d[  9] =        -0.022969468493;
  BAS[ATNO][ 10].a[ 10] =         0.763371087200;     BAS[ATNO][ 10].d[ 10] =         0.622198849532;
  BAS[ATNO][ 10].a[ 11] =         0.309436255300;     BAS[ATNO][ 10].d[ 11] =        -1.605034433964;
  BAS[ATNO][ 10].a[ 12] =         0.115697044600;     BAS[ATNO][ 10].d[ 12] =         1.699154977496;

  // Basis function  12 L = d
  InitBFNGauss(BAS[ATNO][ 11]);
  BAS[ATNO][ 11].l  = 2;
  BAS[ATNO][ 11].ng = 8;
  BAS[ATNO][ 11].a[  0] =       186.417609040000;     BAS[ATNO][ 11].d[  0] =        -0.010629222152;
  BAS[ATNO][ 11].a[  1] =        55.274124345000;     BAS[ATNO][ 11].d[  1] =        -0.074540575581;
  BAS[ATNO][ 11].a[  2] =        20.283219120000;     BAS[ATNO][ 11].d[  2] =        -0.261426308478;
  BAS[ATNO][ 11].a[  3] =         8.088453697600;     BAS[ATNO][ 11].d[  3] =        -0.498212819566;
  BAS[ATNO][ 11].a[  4] =         3.221403385300;     BAS[ATNO][ 11].d[  4] =        -0.523348739688;
  BAS[ATNO][ 11].a[  5] =         1.195217010200;     BAS[ATNO][ 11].d[  5] =         0.544761197039;
  BAS[ATNO][ 11].a[  6] =         0.648000000000;     BAS[ATNO][ 11].d[  6] =        -0.379220774528;
  BAS[ATNO][ 11].a[  7] =         0.251000000000;     BAS[ATNO][ 11].d[  7] =         0.095970692971;

  // Basis function  13 L = d
  InitBFNGauss(BAS[ATNO][ 12]);
  BAS[ATNO][ 12].l  = 2;
  BAS[ATNO][ 12].ng = 8;
  BAS[ATNO][ 12].a[  0] =       186.417609040000;     BAS[ATNO][ 12].d[  0] =        -0.003123149404;
  BAS[ATNO][ 12].a[  1] =        55.274124345000;     BAS[ATNO][ 12].d[  1] =        -0.021902012286;
  BAS[ATNO][ 12].a[  2] =        20.283219120000;     BAS[ATNO][ 12].d[  2] =        -0.076814032834;
  BAS[ATNO][ 12].a[  3] =         8.088453697600;     BAS[ATNO][ 12].d[  3] =        -0.146388234999;
  BAS[ATNO][ 12].a[  4] =         3.221403385300;     BAS[ATNO][ 12].d[  4] =        -0.153773839780;
  BAS[ATNO][ 12].a[  5] =         1.195217010200;     BAS[ATNO][ 12].d[  5] =         1.774947872060;
  BAS[ATNO][ 12].a[  6] =         0.648000000000;     BAS[ATNO][ 12].d[  6] =        -0.924564653782;
  BAS[ATNO][ 12].a[  7] =         0.251000000000;     BAS[ATNO][ 12].d[  7] =         0.208052728634;

  // Basis function  14 L = d
  InitBFNGauss(BAS[ATNO][ 13]);
  BAS[ATNO][ 13].l  = 2;
  BAS[ATNO][ 13].ng = 8;
  BAS[ATNO][ 13].a[  0] =       186.417609040000;     BAS[ATNO][ 13].d[  0] =         0.001410135118;
  BAS[ATNO][ 13].a[  1] =        55.274124345000;     BAS[ATNO][ 13].d[  1] =         0.009888991110;
  BAS[ATNO][ 13].a[  2] =        20.283219120000;     BAS[ATNO][ 13].d[  2] =         0.034682351460;
  BAS[ATNO][ 13].a[  3] =         8.088453697600;     BAS[ATNO][ 13].d[  3] =         0.066095842499;
  BAS[ATNO][ 13].a[  4] =         3.221403385300;     BAS[ATNO][ 13].d[  4] =         0.069430521480;
  BAS[ATNO][ 13].a[  5] =         1.195217010200;     BAS[ATNO][ 13].d[  5] =        -1.556341685505;
  BAS[ATNO][ 13].a[  6] =         0.648000000000;     BAS[ATNO][ 13].d[  6] =         2.240499688587;
  BAS[ATNO][ 13].a[  7] =         0.251000000000;     BAS[ATNO][ 13].d[  7] =        -0.295760339070;

  // Basis function  15 L = d
  InitBFNGauss(BAS[ATNO][ 14]);
  BAS[ATNO][ 14].l  = 2;
  BAS[ATNO][ 14].ng = 8;
  BAS[ATNO][ 14].a[  0] =       186.417609040000;     BAS[ATNO][ 14].d[  0] =         0.000636284959;
  BAS[ATNO][ 14].a[  1] =        55.274124345000;     BAS[ATNO][ 14].d[  1] =         0.004462137157;
  BAS[ATNO][ 14].a[  2] =        20.283219120000;     BAS[ATNO][ 14].d[  2] =         0.015649463875;
  BAS[ATNO][ 14].a[  3] =         8.088453697600;     BAS[ATNO][ 14].d[  3] =         0.029823943762;
  BAS[ATNO][ 14].a[  4] =         3.221403385300;     BAS[ATNO][ 14].d[  4] =         0.031328626578;
  BAS[ATNO][ 14].a[  5] =         1.195217010200;     BAS[ATNO][ 14].d[  5] =        -0.878212796046;
  BAS[ATNO][ 14].a[  6] =         0.648000000000;     BAS[ATNO][ 14].d[  6] =         1.768308160449;
  BAS[ATNO][ 14].a[  7] =         0.251000000000;     BAS[ATNO][ 14].d[  7] =        -1.599786413587;

  // Basis function  16 L = f
  InitBFNGauss(BAS[ATNO][ 15]);
  BAS[ATNO][ 15].l  = 3;
  BAS[ATNO][ 15].ng = 1;
  BAS[ATNO][ 15].a[  0] =         0.628000000000;     BAS[ATNO][ 15].d[  0] =         1.000000000000;

-------
TIMINGS
-------

Total SCF time: 0 days 0 hours 0 min 1 sec 

Total time                  ....       1.513 sec
Sum of individual times     ....       1.343 sec  ( 88.8%)

Fock matrix formation       ....       0.615 sec  ( 40.6%)
  XC integration            ....       0.020 sec  (  3.2% of F)
    Basis function eval.    ....       0.003 sec  ( 16.7% of XC)
    Density eval.           ....       0.001 sec  (  6.4% of XC)
    XC-Functional eval.     ....       0.002 sec  (  8.7% of XC)
    XC-Potential eval.      ....       0.002 sec  (  8.1% of XC)
Diagonalization             ....       0.001 sec  (  0.0%)
Density matrix formation    ....       0.001 sec  (  0.0%)
Population analysis         ....       0.001 sec  (  0.0%)
Initial guess               ....       0.071 sec  (  4.7%)
Orbital Transformation      ....       0.000 sec  (  0.0%)
Orbital Orthonormalization  ....       0.000 sec  (  0.0%)
DIIS solution               ....       0.000 sec  (  0.0%)
SOSCF solution              ....       0.001 sec  (  0.0%)
Grid generation             ....       0.655 sec  ( 43.3%)

-------------------------   --------------------
FINAL SINGLE POINT ENERGY     -1417.167469094351
-------------------------   --------------------


                            ***************************************
                            *     ORCA property calculations      *
                            ***************************************

                                    ---------------------
                                    Active property flags
                                    ---------------------
   (+) Dipole Moment


------------------------------------------------------------------------------
                       ORCA ELECTRIC PROPERTIES CALCULATION
------------------------------------------------------------------------------

Dipole Moment Calculation                       ... on
Quadrupole Moment Calculation                   ... off
Polarizability Calculation                      ... off
GBWName                                         ... Kr_def2-tzvp_68.5179945_.gbw
Electron density file                           ... Kr_def2-tzvp_68.5179945_.scfp
The origin for moment calculation is the CENTER OF MASS  = ( 0.000000,  0.000000  0.000000)

-------------
DIPOLE MOMENT
-------------
                                X             Y             Z
Electronic contribution:      0.00000      -0.00000      -0.00000
Nuclear contribution   :      0.00000       0.00000       0.00000
                        -----------------------------------------
Total Dipole Moment    :      0.00000      -0.00000      -0.00000
                        -----------------------------------------
Magnitude (a.u.)       :      0.00000
Magnitude (Debye)      :      0.00000



--------------------
Rotational spectrum 
--------------------
 
Rotational constants in cm-1:     0.000000     0.000000     0.000000 
Rotational constants in MHz :     0.000000     0.000000     0.000000 

 Dipole components along the rotational axes: 
x,y,z [a.u.] :     0.000000    -0.000000    -0.000000 
x,y,z [Debye]:     0.000000    -0.000000    -0.000000 

 

Timings for individual modules:

Sum of individual times         ...        2.756 sec (=   0.046 min)
GTO integral calculation        ...        0.503 sec (=   0.008 min)  18.2 %
Relativistic integrals          ...        0.481 sec (=   0.008 min)  17.5 %
SCF iterations                  ...        1.771 sec (=   0.030 min)  64.3 %
                             ****ORCA TERMINATED NORMALLY****
TOTAL RUN TIME: 0 days 0 hours 0 minutes 3 seconds 74 msec
