
                                 *****************
                                 * O   R   C   A *
                                 *****************

           --- An Ab Initio, DFT and Semiempirical electronic structure package ---

                  #######################################################
                  #                        -***-                        #
                  #          Department of theory and spectroscopy      #
                  #               Directorship: Frank Neese             #
                  #        Max Planck Institute fuer Kohlenforschung    #
                  #                Kaiser Wilhelm Platz 1               #
                  #                 D-45470 Muelheim/Ruhr               #
                  #                      Germany                        #
                  #                                                     #
                  #                  All rights reserved                #
                  #                        -***-                        #
                  #######################################################


                         Program Version 4.2.1 -  RELEASE  -


 With contributions from (in alphabetic order):
   Daniel Aravena         : Magnetic Suceptibility
   Michael Atanasov       : Ab Initio Ligand Field Theory (pilot matlab implementation)
   Alexander A. Auer      : GIAO ZORA, VPT2
   Ute Becker             : Parallelization
   Giovanni Bistoni       : ED, misc. LED, open-shell LED, HFLD
   Martin Brehm           : Molecular dynamics
   Dmytro Bykov           : SCF Hessian
   Vijay G. Chilkuri      : MRCI spin determinant printing, contributions to CSF-ICE
   Dipayan Datta          : RHF DLPNO-CCSD density
   Achintya Kumar Dutta   : EOM-CC, STEOM-CC
   Dmitry Ganyushin       : Spin-Orbit,Spin-Spin,Magnetic field MRCI
   Miquel Garcia          : C-PCM Hessian, Gaussian charge scheme
   Yang Guo               : DLPNO-NEVPT2, CIM, IAO-localization
   Andreas Hansen         : Spin unrestricted coupled pair/coupled cluster methods
   Benjamin Helmich-Paris : CASSCF linear response (MC-RPA)
   Lee Huntington         : MR-EOM, pCC
   Robert Izsak           : Overlap fitted RIJCOSX, COSX-SCS-MP3, EOM
   Christian Kollmar      : KDIIS, OOCD, Brueckner-CCSD(T), CCSD density
   Simone Kossmann        : Meta GGA functionals, TD-DFT gradient, OOMP2, MP2 Hessian
   Martin Krupicka        : AUTO-CI
   Lucas Lang             : DCDCAS
   Dagmar Lenk            : GEPOL surface, SMD
   Dimitrios Liakos       : Extrapolation schemes; Compound Job, initial MDCI parallelization
   Dimitrios Manganas     : Further ROCIS development; embedding schemes
   Dimitrios Pantazis     : SARC Basis sets
   Taras Petrenko         : DFT Hessian,TD-DFT gradient, ASA, ECA, R-Raman, ABS, FL, XAS/XES, NRVS
   Peter Pinski           : DLPNO-MP2, DLPNO-MP2 Gradient
   Christoph Reimann      : Effective Core Potentials
   Marius Retegan         : Local ZFS, SOC
   Christoph Riplinger    : Optimizer, TS searches, QM/MM, DLPNO-CCSD(T), (RO)-DLPNO pert. Triples
   Tobias Risthaus        : Range-separated hybrids, TD-DFT gradient, RPA, STAB
   Michael Roemelt        : Original ROCIS implementation
   Masaaki Saitow         : Open-shell DLPNO-CCSD energy and density
   Barbara Sandhoefer     : DKH picture change effects
   Avijit Sen             : IP-ROCIS
   Kantharuban Sivalingam : CASSCF convergence, NEVPT2, FIC-MRCI
   Bernardo de Souza      : ESD, SOC TD-DFT
   Georgi Stoychev        : AutoAux, RI-MP2 NMR
   Willem Van den Heuvel  : Paramagnetic NMR
   Boris Wezisla          : Elementary symmetry handling
   Frank Wennmohs         : Technical directorship


 We gratefully acknowledge several colleagues who have allowed us to
 interface, adapt or use parts of their codes:
   Stefan Grimme, W. Hujo, H. Kruse,             : VdW corrections, initial TS optimization,
                  C. Bannwarth                     DFT functionals, gCP, sTDA/sTD-DF
   Ed Valeev, F. Pavosevic, A. Kumar             : LibInt (2-el integral package), F12 methods
   Garnet Chan, S. Sharma, J. Yang, R. Olivares  : DMRG
   Ulf Ekstrom                                   : XCFun DFT Library
   Mihaly Kallay                                 : mrcc  (arbitrary order and MRCC methods)
   Andreas Klamt, Michael Diedenhofen            : otool_cosmo (COSMO solvation model)
   Jiri Pittner, Ondrej Demel                    : Mk-CCSD
   Frank Weinhold                                : gennbo (NPA and NBO analysis)
   Christopher J. Cramer and Donald G. Truhlar   : smd solvation model
   Lars Goerigk                                  : TD-DFT with DH, B97 family of functionals
   V. Asgeirsson, H. Jonsson                     : NEB implementation
   FAccTs GmbH                                   : IRC, NEB, NEB-TS, Multilevel, MM, QM/MM, CI optimization
   S Lehtola, MJT Oliveira, MAL Marques          : LibXC Library


 Your calculation uses the libint2 library for the computation of 2-el integrals
 For citations please refer to: http://libint.valeyev.net

 Your ORCA version has been built with support for libXC version: 4.2.3
 For citations please refer to: https://tddft.org/programs/libxc/

 This ORCA versions uses:
   CBLAS   interface :  Fast vector & matrix operations
   LAPACKE interface :  Fast linear algebra routines
   SCALAPACK package :  Parallel linear algebra routines


----- Orbital basis set information -----
Your calculation utilizes the basis: def2-TZVP
   F. Weigend and R. Ahlrichs, Phys. Chem. Chem. Phys. 7, 3297 (2005).

================================================================================
                                        WARNINGS
                       Please study these warnings very carefully!
================================================================================


INFO   : the flag for use of LIBINT has been found!

================================================================================
                                       INPUT FILE
================================================================================
NAME = Kr_def2-tzvp_548.143956_.inp
|  1> ! LDA def2-tzvp nori grid5 finalgrid6 verytightscf
|  2> %Pal NProcs 18 End
|  3> 
|  4> % REL
|  5>   Method ZORA
|  6>   ModelPot 1, 0, 0, 0
|  7>   velit 548.143956
|  8> END
|  9> 
| 10> *xyz 34 1
| 11> Kr 0.0 0.0 0.0
| 12> **                         ****END OF INPUT****
================================================================================

                       ****************************
                       * Single Point Calculation *
                       ****************************

---------------------------------
CARTESIAN COORDINATES (ANGSTROEM)
---------------------------------
  Kr     0.000000    0.000000    0.000000

----------------------------
CARTESIAN COORDINATES (A.U.)
----------------------------
  NO LB      ZA    FRAG     MASS         X           Y           Z
   0 Kr   36.0000    0    83.800    0.000000    0.000000    0.000000

--------------------------------
INTERNAL COORDINATES (ANGSTROEM)
--------------------------------
 Kr     0   0   0     0.000000000000     0.00000000     0.00000000

---------------------------
INTERNAL COORDINATES (A.U.)
---------------------------
 Kr     0   0   0     0.000000000000     0.00000000     0.00000000

---------------------
BASIS SET INFORMATION
---------------------
There are 1 groups of distinct atoms

 Group   1 Type Kr  : 17s13p8d1f contracted to 6s5p4d1f pattern {842111/64111/5111/1}

Atom   0Kr   basis set group =>   1


           ************************************************************
           *        Program running with 18 parallel MPI-processes    *
           *              working on a common directory               *
           ************************************************************
------------------------------------------------------------------------------
                           ORCA GTO INTEGRAL CALCULATION
------------------------------------------------------------------------------

                         BASIS SET STATISTICS AND STARTUP INFO

 # of primitive gaussian shells          ...   39
 # of primitive gaussian functions       ...  103
 # of contracted shells                  ...   16
 # of contracted basis functions         ...   48
 Highest angular momentum                ...    3
 Maximum contraction depth               ...    8
 Integral package used                   ... LIBINT
 Integral threshhold            Thresh   ...  1.000e-12
 Primitive cut-off              TCut     ...  1.000e-14


------------------------------ INTEGRAL EVALUATION ----------------------------


 * One electron integrals 
 Pre-screening matrix                    ... done
 Shell pair data                         ... done (   0.000 sec)



           ************************************************************
           *        Program running with 18 parallel MPI-processes    *
           *              working on a common directory               *
           ************************************************************
------------------------------------------------------------------------------
                          ORCA RELATIVISTIC HAMILTONIAN
------------------------------------------------------------------------------

Relativistic Method            ... ZORA(MP)
Treatment of potential         ... Van Wuellen
Nucleus model                  ... Point Nucleus
Speed of light used            ... 548.14395600000000


            *************************************************
            *         ZERO ORDER REGULAR APPROXIMATION      *
            *                     ZORA(MP)                  *
            *            Programmed by FN according to      *
            *                   C. van Wuellen              *
            *       J. Chem. Phys. (1998) vol 109, 392-399  *
            *************************************************

Terms included in model potential: +V(e,N)
Basis function cutoff value   ... 1.000000e-12
Loading the fitted atomic densities  (DKH4)  ... done
Calculating the cutoffs                      ... done
Number of fit functions                      ... 27
Setting up the integration grid ... done


           ************************************************************
           *        Program running with 18 parallel MPI-processes    *
           *              working on a common directory               *
           ************************************************************
-------------------------------------------------------------------------------
                                 ORCA SCF
-------------------------------------------------------------------------------

------------
SCF SETTINGS
------------
Hamiltonian:
 Density Functional     Method          .... DFT(GTOs)
 Exchange Functional    Exchange        .... Slater
   X-Alpha parameter    XAlpha          ....  0.666667
 Correlation Functional Correlation     .... VWN-5
 Gradients option       PostSCFGGA      .... off
   Density functional embedding theory  .... OFF

Relativistic Settings:
 Scalar relativistic method             .... ZORA
 Speed of light used       Velit        ....       548.143956
Orbital energies will be scaled


General Settings:
 Integral files         IntName         .... Kr_def2-tzvp_548.143956_
 Hartree-Fock type      HFTyp           .... RHF
 Total Charge           Charge          ....   34
 Multiplicity           Mult            ....    1
 Number of Electrons    NEL             ....    2
 Basis Dimension        Dim             ....   48
 Nuclear Repulsion      ENuc            ....      0.0000000000 Eh

Convergence Acceleration:
 DIIS                   CNVDIIS         .... on
   Start iteration      DIISMaxIt       ....    12
   Startup error        DIISStart       ....  0.200000
   # of expansion vecs  DIISMaxEq       ....     5
   Bias factor          DIISBfac        ....   1.050
   Max. coefficient     DIISMaxC        ....  10.000
 Newton-Raphson         CNVNR           .... off
 SOSCF                  CNVSOSCF        .... on
   Start iteration      SOSCFMaxIt      ....   150
   Startup grad/error   SOSCFStart      ....  0.003300
 Level Shifting         CNVShift        .... on
   Level shift para.    LevelShift      ....    0.2500
   Turn off err/grad.   ShiftErr        ....    0.0010
 Zerner damping         CNVZerner       .... off
 Static damping         CNVDamp         .... on
   Fraction old density DampFac         ....    0.7000
   Max. Damping (<1)    DampMax         ....    0.9800
   Min. Damping (>=0)   DampMin         ....    0.0000
   Turn off err/grad.   DampErr         ....    0.1000
 Fernandez-Rico         CNVRico         .... off

SCF Procedure:
 Maximum # iterations   MaxIter         ....   125
 SCF integral mode      SCFMode         .... Direct
   Integral package                     .... LIBINT
 Reset frequency        DirectResetFreq ....    20
 Integral Threshold     Thresh          ....  1.000e-12 Eh
 Primitive CutOff       TCut            ....  1.000e-14 Eh

Convergence Tolerance:
 Convergence Check Mode ConvCheckMode   .... Total+1el-Energy
 Convergence forced     ConvForced      .... 0
 Energy Change          TolE            ....  1.000e-09 Eh
 1-El. energy change                    ....  1.000e-06 Eh
 Orbital Gradient       TolG            ....  2.000e-06
 Orbital Rotation angle TolX            ....  2.000e-06
 DIIS Error             TolErr          ....  1.000e-08


Diagonalization of the overlap matrix:
Smallest eigenvalue                        ... 2.275e-02
Time for diagonalization                   ...    0.001 sec
Threshold for overlap eigenvalues          ... 1.000e-08
Number of eigenvalues below threshold      ... 0
Time for construction of square roots      ...    0.001 sec
Total time needed                          ...    0.002 sec

-------------------
DFT GRID GENERATION
-------------------

General Integration Accuracy     IntAcc      ...  5.010
Radial Grid Type                 RadialGrid  ... Gauss-Chebyshev
Angular Grid (max. acc.)         AngularGrid ... Lebedev-434
Angular grid pruning method      GridPruning ... 3 (G Style)
Weight generation scheme         WeightScheme... Becke
Basis function cutoff            BFCut       ...    1.0000e-12
Integration weight cutoff        WCut        ...    1.0000e-14
Grids for H and He will be reduced by one unit

# of grid points (after initial pruning)     ...  16106 (   0.0 sec)
# of grid points (after weights+screening)   ...  16106 (   0.0 sec)
Grid point division into batches done        ...    0.2 sec
Reduced shell lists constructed in    0.2 sec

Total number of grid points                  ...    16106
Total number of batches                      ...      252
Average number of points per batch           ...       63
Average number of grid points per atom       ...    16106
Average number of shells per batch           ...     0.53 ( 3.33%)
Average number of basis functions per batch  ...     1.60 ( 3.33%)
Average number of large shells per batch     ...     0.53 (100.00%)
Average number of large basis fcns per batch ...     1.60 (100.00%)
Maximum spatial batch extension              ...  17.34, 17.34, 17.34 au
Average spatial batch extension              ...   0.86,  0.87,  0.87 au

Time for grid setup =    0.237 sec

------------------------------
INITIAL GUESS: MODEL POTENTIAL
------------------------------
Loading ZORA relativistic densities                ... done
Calculating cut-offs                               ... done
Setting up the integral package                    ... done
Initializing the effective Hamiltonian             ... done
Starting the Coulomb interaction                   ... done (   0.0 sec)
Reading the grid                                   ... done
Mapping shells                                     ... done
Starting the XC term evaluation                    ... done (   0.0 sec)
  promolecular density results
     # of electrons  =     36.000000565
     EX              =    -91.042004939
     EC              =     -3.295965580
     EX+EC           =    -94.337970520
Transforming the Hamiltonian                       ... done (   0.0 sec)
Diagonalizing the Hamiltonian                      ... done (   0.0 sec)
Back transforming the eigenvectors                 ... done (   0.0 sec)
Now organizing SCF variables                       ... done
                      ------------------
                      INITIAL GUESS DONE (   0.3 sec)
                      ------------------
--------------
SCF ITERATIONS
--------------
ITER       Energy         Delta-E        Max-DP      RMS-DP      [F,P]     Damp
               ***  Starting incremental Fock matrix formation  ***
  0  -1273.3603077031   0.000000000000 0.00434721  0.00016880  5.9350455 0.7000
                      *** Initiating the SOSCF procedure ***
                      *** Re-Reading the Fockian *** 
                      *** Removing any level shift *** 
ITER      Energy       Delta-E        Grad      Rot      Max-DP    RMS-DP
  1  -1273.37513647  -0.0148287663  0.002207  0.002207  0.010134  0.000393
               *** Restarting incremental Fock matrix formation ***
  2  -1273.40959178  -0.0344553147  0.009038  0.000019  0.000051  0.000002
  3  -1273.40959220  -0.0000004153  0.000036  0.000000  0.000000  0.000000
                 **** Energy Check signals convergence ****
              ***Rediagonalizing the Fockian in SOSCF/NRSCF***

               *****************************************************
               *                     SUCCESS                       *
               *           SCF CONVERGED AFTER   4 CYCLES          *
               *****************************************************

Setting up the final grid:

General Integration Accuracy     IntAcc      ...  5.340
Radial Grid Type                 RadialGrid  ... Gauss-Chebyshev
Angular Grid (max. acc.)         AngularGrid ... Lebedev-590
Angular grid pruning method      GridPruning ... 3 (G Style)
Weight generation scheme         WeightScheme... Becke
Basis function cutoff            BFCut       ...    1.0000e-12
Integration weight cutoff        WCut        ...    1.0000e-14
Grids for H and He will be reduced by one unit

# of grid points (after initial pruning)     ...  24180 (   0.0 sec)
# of grid points (after weights+screening)   ...  24180 (   0.0 sec)
Grid point division into batches done        ...    0.4 sec
Reduced shell lists constructed in    0.4 sec

Total number of grid points                  ...    24180
Total number of batches                      ...      378
Average number of points per batch           ...       63
Average number of grid points per atom       ...    24180
Average number of shells per batch           ...     0.14 ( 0.85%)
Average number of basis functions per batch  ...     0.41 ( 0.85%)
Average number of large shells per batch     ...     0.14 (100.00%)
Average number of large basis fcns per batch ...     0.41 (100.00%)
Maximum spatial batch extension              ...  17.58, 17.58, 17.58 au
Average spatial batch extension              ...   0.77,  0.77,  0.77 au

Final grid set up in    0.4 sec
Final integration                            ... done (   0.0 sec)
Change in XC energy                          ...     0.000002243
Integrated number of electrons               ...     1.999999985
Previous integrated no of electrons          ...     2.000000015

----------------
TOTAL SCF ENERGY
----------------

Total Energy       :        -1273.40958996 Eh          -34651.23658 eV

Components:
Nuclear Repulsion  :            0.00000000 Eh               0.00000 eV
Electronic Energy  :        -1273.40958996 Eh          -34651.23658 eV
One Electron Energy:        -1298.50478770 Eh          -35334.11162 eV
Two Electron Energy:           25.09519774 Eh             682.87505 eV

Virial components:
Potential Energy   :        -2538.19574809 Eh          -69067.81765 eV
Kinetic Energy     :         1264.78615813 Eh           34416.58107 eV
Virial Ratio       :            2.00681809


DFT components:
N(Alpha)           :        0.999999992441 electrons
N(Beta)            :        0.999999992441 electrons
N(Total)           :        1.999999984882 electrons
E(X)               :      -19.059693224282 Eh       
E(C)               :       -0.277908022649 Eh       
E(XC)              :      -19.337601246930 Eh       
DFET-embed. en.    :        0.000000000000 Eh       

---------------
SCF CONVERGENCE
---------------

  Last Energy change         ...   -5.4570e-12  Tolerance :   1.0000e-09
  Last MAX-Density change    ...    0.0000e+00  Tolerance :   1.0000e-08
  Last RMS-Density change    ...    0.0000e+00  Tolerance :   1.0000e-09
  Last Orbital Gradient      ...    2.2305e-11  Tolerance :   2.0000e-06
  Last Orbital Rotation      ...    0.0000e+00  Tolerance :   2.0000e-06

================================================================================
                                        WARNING
Number of found core electrons (2) does not match given number of chemical core electrons (18)
================================================================================
             **** THE GBW FILE WAS UPDATED (Kr_def2-tzvp_548.143956_.gbw) ****
             **** DENSITY FILE WAS UPDATED (Kr_def2-tzvp_548.143956_.scfp) ****
             **** ENERGY FILE WAS UPDATED (Kr_def2-tzvp_548.143956_.en.tmp) ****
             **** THE GBW FILE WAS UPDATED (Kr_def2-tzvp_548.143956_.gbw) ****
             **** DENSITY FILE WAS UPDATED (Kr_def2-tzvp_548.143956_.scfp) ****
----------------
ORBITAL ENERGIES
----------------

  NO   OCC          E(Eh)            E(eV) 
   0   2.0000    -617.674849    -16807.7871 
   1   0.0000    -148.766473     -4048.1415 
   2   0.0000    -146.485701     -3986.0786 
   3   0.0000    -146.485701     -3986.0786 
   4   0.0000    -146.485701     -3986.0786 
   5   0.0000     -63.651551     -1732.0467 
   6   0.0000     -59.219689     -1611.4497 
   7   0.0000     -59.219689     -1611.4497 
   8   0.0000     -59.219689     -1611.4497 
   9   0.0000     -58.164040     -1582.7240 
  10   0.0000     -58.164040     -1582.7240 
  11   0.0000     -58.164040     -1582.7240 
  12   0.0000     -58.164040     -1582.7240 
  13   0.0000     -58.164040     -1582.7240 
  14   0.0000     -34.034538      -926.1269 
  15   0.0000     -26.804946      -729.3997 
  16   0.0000     -26.804946      -729.3997 
  17   0.0000     -26.804946      -729.3997 
  18   0.0000     -26.804946      -729.3997 
  19   0.0000     -26.804946      -729.3997 
  20   0.0000     -26.654533      -725.3067 
  21   0.0000     -26.654533      -725.3067 
  22   0.0000     -26.654533      -725.3067 
  23   0.0000     -20.327686      -553.1445 
  24   0.0000     -16.831619      -458.0116 
  25   0.0000     -16.831619      -458.0116 
  26   0.0000     -16.831619      -458.0116 
  27   0.0000     -16.831619      -458.0116 
  28   0.0000     -16.831619      -458.0116 
  29   0.0000     -16.831619      -458.0116 
  30   0.0000     -16.831619      -458.0116 
  31   0.0000     -15.963318      -434.3840 
  32   0.0000     -15.963318      -434.3840 
  33   0.0000     -15.963318      -434.3840 
  34   0.0000     -15.963318      -434.3840 
  35   0.0000     -15.963318      -434.3840 
  36   0.0000     -14.402805      -391.9203 
  37   0.0000     -14.402805      -391.9203 
  38   0.0000     -14.402805      -391.9203 
  39   0.0000     -12.154193      -330.7324 
  40   0.0000     -10.268274      -279.4139 
  41   0.0000     -10.268274      -279.4139 
  42   0.0000     -10.268274      -279.4139 
  43   0.0000     -10.268274      -279.4139 
  44   0.0000     -10.268274      -279.4139 
  45   0.0000      -8.426645      -229.3007 
  46   0.0000      -8.426645      -229.3007 
  47   0.0000      -8.426645      -229.3007 

                    ********************************
                    * MULLIKEN POPULATION ANALYSIS *
                    ********************************

-----------------------
MULLIKEN ATOMIC CHARGES
-----------------------
   0 Kr:   34.000000
Sum of atomic charges:   34.0000000

--------------------------------
MULLIKEN REDUCED ORBITAL CHARGES
--------------------------------
  0 Krs       :     2.000000  s :     2.000000
      pz      :     0.000000  p :     0.000000
      px      :     0.000000
      py      :     0.000000
      dz2     :     0.000000  d :     0.000000
      dxz     :     0.000000
      dyz     :     0.000000
      dx2y2   :     0.000000
      dxy     :     0.000000
      f0      :     0.000000  f :     0.000000
      f+1     :     0.000000
      f-1     :     0.000000
      f+2     :     0.000000
      f-2     :     0.000000
      f+3     :     0.000000
      f-3     :     0.000000


                     *******************************
                     * LOEWDIN POPULATION ANALYSIS *
                     *******************************

----------------------
LOEWDIN ATOMIC CHARGES
----------------------
   0 Kr:   34.000000

-------------------------------
LOEWDIN REDUCED ORBITAL CHARGES
-------------------------------
  0 Krs       :     2.000000  s :     2.000000
      pz      :     0.000000  p :     0.000000
      px      :     0.000000
      py      :     0.000000
      dz2     :     0.000000  d :     0.000000
      dxz     :     0.000000
      dyz     :     0.000000
      dx2y2   :     0.000000
      dxy     :     0.000000
      f0      :     0.000000  f :     0.000000
      f+1     :     0.000000
      f-1     :     0.000000
      f+2     :     0.000000
      f-2     :     0.000000
      f+3     :     0.000000
      f-3     :     0.000000


                      *****************************
                      * MAYER POPULATION ANALYSIS *
                      *****************************

  NA   - Mulliken gross atomic population
  ZA   - Total nuclear charge
  QA   - Mulliken gross atomic charge
  VA   - Mayer's total valence
  BVA  - Mayer's bonded valence
  FA   - Mayer's free valence

  ATOM       NA         ZA         QA         VA         BVA        FA
  0 Kr     2.0000    36.0000    34.0000     0.0000     0.0000     0.0000

  Mayer bond orders larger than 0.100000


--------------------------
ATOM BASIS FOR ELEMENT Kr
--------------------------
 NewGTO Kr
 S 17
    1     600250.975749999983         0.000230304160
    2      89976.650781000004         0.001785950353
    3      20476.814224999998         0.009292988165
    4       5796.155407800000         0.037853358111
    5       1887.591319600000         0.123905553305
    6        679.114585190000         0.296812344967
    7        264.382445110000         0.435155750136
    8        104.883685740000         0.239833766319
    9        641.473707640000        -0.000024331827
   10        199.575248200000        -0.000114367239
   11         33.545462954000         0.000513867315
   12         14.683955144000         0.000509218698
   13         22.603101860000        -0.001260836795
   14          4.065068299100         0.003538097745
   15          1.961102706000        -0.003087372657
   16          0.524651479800         0.001172420005
   17          0.193323995100        -0.000437939876
 S 17
    1     600250.975749999983         0.000078661428
    2      89976.650781000004         0.000609999425
    3      20476.814224999998         0.003174062161
    4       5796.155407800000         0.012928985758
    5       1887.591319600000         0.042320502433
    6        679.114585190000         0.101377599568
    7        264.382445110000         0.148629415639
    8        104.883685740000         0.081916308190
    9        641.473707640000         0.027458165269
   10        199.575248200000         0.129062011587
   11         33.545462954000        -0.579892893403
   12         14.683955144000        -0.574646987527
   13         22.603101860000        -0.068141551849
   14          4.065068299100         0.191215446651
   15          1.961102706000        -0.134503042557
   16          0.524651479800         0.043485993031
   17          0.193323995100        -0.015549144407
 S 17
    1     600250.975749999983        -0.000039175631
    2      89976.650781000004        -0.000303797081
    3      20476.814224999998        -0.001580773323
    4       5796.155407800000        -0.006439003000
    5       1887.591319600000        -0.021076815090
    6        679.114585190000        -0.050488930839
    7        264.382445110000        -0.074021680518
    8        104.883685740000        -0.040796653663
    9        641.473707640000        -0.007524041135
   10        199.575248200000        -0.035365359433
   11         33.545462954000         0.158901293694
   12         14.683955144000         0.157463819223
   13         22.603101860000         0.693010339998
   14          4.065068299100        -1.944691280152
   15          1.961102706000         0.728930040091
   16          0.524651479800        -0.197396091006
   17          0.193323995100         0.067308334982
 S 17
    1     600250.975749999983        -0.000032060431
    2      89976.650781000004        -0.000248620515
    3      20476.814224999998        -0.001293668381
    4       5796.155407800000        -0.005269531355
    5       1887.591319600000        -0.017248778728
    6        679.114585190000        -0.041318975023
    7        264.382445110000        -0.060577633901
    8        104.883685740000        -0.033387039212
    9        641.473707640000         0.010533564672
   10        199.575248200000         0.049511066468
   11         33.545462954000        -0.222459848848
   12         14.683955144000        -0.220447402340
   13         22.603101860000         0.994569007803
   14          4.065068299100        -2.790910272693
   15          1.961102706000         2.989823960894
   16          0.524651479800        -0.271498774018
   17          0.193323995100         0.088440121396
 S 17
    1     600250.975749999983        -0.000020991680
    2      89976.650781000004        -0.000162785154
    3      20476.814224999998        -0.000847033912
    4       5796.155407800000        -0.003450244144
    5       1887.591319600000        -0.011293698394
    6        679.114585190000        -0.027053743873
    7        264.382445110000        -0.039663418347
    8        104.883685740000        -0.021860281070
    9        641.473707640000         0.011087685205
   10        199.575248200000         0.052115607228
   11         33.545462954000        -0.234162399109
   12         14.683955144000        -0.232044087401
   13         22.603101860000         0.729573769953
   14          4.065068299100        -2.047293765717
   15          1.961102706000         3.331266869372
   16          0.524651479800        -2.393758184008
   17          0.193323995100         0.443457315869
 S 17
    1     600250.975749999983        -0.000009075659
    2      89976.650781000004        -0.000070379432
    3      20476.814224999998        -0.000366211316
    4       5796.155407800000        -0.001491697595
    5       1887.591319600000        -0.004882779893
    6        679.114585190000        -0.011696564936
    7        264.382445110000        -0.017148301191
    8        104.883685740000        -0.009451194565
    9        641.473707640000         0.005304442174
   10        199.575248200000         0.024932546316
   11         33.545462954000        -0.112025267895
   12         14.683955144000        -0.111011849697
   13         22.603101860000         0.323367214514
   14          4.065068299100        -0.907417055789
   15          1.961102706000         1.739590150382
   16          0.524651479800        -2.592907584527
   17          0.193323995100         2.220503420249
 P 13
    1       3232.958961400000         0.002736648901
    2        765.964426940000         0.022410619106
    3        246.339408100000         0.106644979956
    4         92.365283041000         0.310112544373
    5         37.199509551000         0.496139567603
    6         15.172166534000         0.274011551351
    7         60.931321698000         0.001748472592
    8          9.479260064600        -0.025894371270
    9          4.256468632600        -0.045833761026
   10          1.972931376200        -0.025914147012
   11          0.763371087200         0.054223822937
   12          0.309436255300        -0.036293220395
   13          0.115697044600         0.012132247890
 P 13
    1       3232.958961400000         0.001025106565
    2        765.964426940000         0.008394673047
    3        246.339408100000         0.039947568364
    4         92.365283041000         0.116163386892
    5         37.199509551000         0.185846247080
    6         15.172166534000         0.102640510454
    7         60.931321698000         0.024215162075
    8          9.479260064600        -0.358619517356
    9          4.256468632600        -0.634766570931
   10          1.972931376200        -0.358893397986
   11          0.763371087200         0.435090797985
   12          0.309436255300        -0.260060542650
   13          0.115697044600         0.082852270217
 P 13
    1       3232.958961400000         0.000282851420
    2        765.964426940000         0.002316291078
    3        246.339408100000         0.011022489579
    4         92.365283041000         0.032052256845
    5         37.199509551000         0.051279424649
    6         15.172166534000         0.028320971795
    7         60.931321698000         0.010214304215
    8          9.479260064600        -0.151270878810
    9          4.256468632600        -0.267753684272
   10          1.972931376200        -0.151386405605
   11          0.763371087200         1.674990706732
   12          0.309436255300        -0.768779863556
   13          0.115697044600         0.221996372905
 P 13
    1       3232.958961400000         0.000102333814
    2        765.964426940000         0.000838019132
    3        246.339408100000         0.003987865445
    4         92.365283041000         0.011596299237
    5         37.199509551000         0.018552564201
    6         15.172166534000         0.010246344437
    7         60.931321698000         0.003991383892
    8          9.479260064600        -0.059111236201
    9          4.256468632600        -0.104628540530
   10          1.972931376200        -0.059156379931
   11          0.763371087200         1.295315982303
   12          0.309436255300        -2.082898950089
   13          0.115697044600         0.442432604879
 P 13
    1       3232.958961400000         0.000040344486
    2        765.964426940000         0.000330383964
    3        246.339408100000         0.001572191782
    4         92.365283041000         0.004571770691
    5         37.199509551000         0.007314235992
    6         15.172166534000         0.004039559193
    7         60.931321698000         0.001573782403
    8          9.479260064600        -0.023307260307
    9          4.256468632600        -0.041254502297
   10          1.972931376200        -0.023325060250
   11          0.763371087200         0.624355143030
   12          0.309436255300        -1.607188000421
   13          0.115697044600         1.699663622626
 D 8
    1        186.417609040000         0.010616102824
    2         55.274124345000         0.074448572395
    3         20.283219120000         0.261103637863
    4          8.088453697600         0.497597890495
    5          3.221403385300         0.522702786109
    6          1.195217010200        -0.536304333960
    7          0.648000000000         0.372703722110
    8          0.251000000000        -0.094220680237
 D 8
    1        186.417609040000         0.003158222988
    2         55.274124345000         0.022147976206
    3         20.283219120000         0.077676669580
    4          8.088453697600         0.148032203764
    5          3.221403385300         0.155500750343
    6          1.195217010200        -1.773351559770
    7          0.648000000000         0.920569292019
    8          0.251000000000        -0.206999283309
 D 8
    1        186.417609040000         0.001427108770
    2         55.274124345000         0.010008023881
    3         20.283219120000         0.035099819366
    4          8.088453697600         0.066891431372
    5          3.221403385300         0.070266249542
    6          1.195217010200        -1.559282272388
    7          0.648000000000         2.240379518162
    8          0.251000000000        -0.294139863545
 D 8
    1        186.417609040000         0.000644293658
    2         55.274124345000         0.004518300530
    3         20.283219120000         0.015846438252
    4          8.088453697600         0.030199327403
    5          3.221403385300         0.031722949139
    6          1.195217010200        -0.881420767489
    7          0.648000000000         1.771926784167
    8          0.251000000000        -1.600325766794
 F 1
    1          0.628000000000         1.000000000000
 end
  // -----------------------------------------------
  // The basis set
  // -----------------------------------------------
  BAS[ATNO] = new BFNGauss[NSH];
  // Basis function   1 L = s
  InitBFNGauss(BAS[ATNO][  0]);
  BAS[ATNO][  0].l  = 0;
  BAS[ATNO][  0].ng = 17;
  BAS[ATNO][  0].a[  0] =    600250.975749999983;     BAS[ATNO][  0].d[  0] =         0.000230304160;
  BAS[ATNO][  0].a[  1] =     89976.650781000004;     BAS[ATNO][  0].d[  1] =         0.001785950353;
  BAS[ATNO][  0].a[  2] =     20476.814224999998;     BAS[ATNO][  0].d[  2] =         0.009292988165;
  BAS[ATNO][  0].a[  3] =      5796.155407800000;     BAS[ATNO][  0].d[  3] =         0.037853358111;
  BAS[ATNO][  0].a[  4] =      1887.591319600000;     BAS[ATNO][  0].d[  4] =         0.123905553305;
  BAS[ATNO][  0].a[  5] =       679.114585190000;     BAS[ATNO][  0].d[  5] =         0.296812344967;
  BAS[ATNO][  0].a[  6] =       264.382445110000;     BAS[ATNO][  0].d[  6] =         0.435155750136;
  BAS[ATNO][  0].a[  7] =       104.883685740000;     BAS[ATNO][  0].d[  7] =         0.239833766319;
  BAS[ATNO][  0].a[  8] =       641.473707640000;     BAS[ATNO][  0].d[  8] =        -0.000024331827;
  BAS[ATNO][  0].a[  9] =       199.575248200000;     BAS[ATNO][  0].d[  9] =        -0.000114367239;
  BAS[ATNO][  0].a[ 10] =        33.545462954000;     BAS[ATNO][  0].d[ 10] =         0.000513867315;
  BAS[ATNO][  0].a[ 11] =        14.683955144000;     BAS[ATNO][  0].d[ 11] =         0.000509218698;
  BAS[ATNO][  0].a[ 12] =        22.603101860000;     BAS[ATNO][  0].d[ 12] =        -0.001260836795;
  BAS[ATNO][  0].a[ 13] =         4.065068299100;     BAS[ATNO][  0].d[ 13] =         0.003538097745;
  BAS[ATNO][  0].a[ 14] =         1.961102706000;     BAS[ATNO][  0].d[ 14] =        -0.003087372657;
  BAS[ATNO][  0].a[ 15] =         0.524651479800;     BAS[ATNO][  0].d[ 15] =         0.001172420005;
  BAS[ATNO][  0].a[ 16] =         0.193323995100;     BAS[ATNO][  0].d[ 16] =        -0.000437939876;

  // Basis function   2 L = s
  InitBFNGauss(BAS[ATNO][  1]);
  BAS[ATNO][  1].l  = 0;
  BAS[ATNO][  1].ng = 17;
  BAS[ATNO][  1].a[  0] =    600250.975749999983;     BAS[ATNO][  1].d[  0] =        -0.000078661428;
  BAS[ATNO][  1].a[  1] =     89976.650781000004;     BAS[ATNO][  1].d[  1] =        -0.000609999425;
  BAS[ATNO][  1].a[  2] =     20476.814224999998;     BAS[ATNO][  1].d[  2] =        -0.003174062161;
  BAS[ATNO][  1].a[  3] =      5796.155407800000;     BAS[ATNO][  1].d[  3] =        -0.012928985758;
  BAS[ATNO][  1].a[  4] =      1887.591319600000;     BAS[ATNO][  1].d[  4] =        -0.042320502433;
  BAS[ATNO][  1].a[  5] =       679.114585190000;     BAS[ATNO][  1].d[  5] =        -0.101377599568;
  BAS[ATNO][  1].a[  6] =       264.382445110000;     BAS[ATNO][  1].d[  6] =        -0.148629415639;
  BAS[ATNO][  1].a[  7] =       104.883685740000;     BAS[ATNO][  1].d[  7] =        -0.081916308190;
  BAS[ATNO][  1].a[  8] =       641.473707640000;     BAS[ATNO][  1].d[  8] =        -0.027458165269;
  BAS[ATNO][  1].a[  9] =       199.575248200000;     BAS[ATNO][  1].d[  9] =        -0.129062011587;
  BAS[ATNO][  1].a[ 10] =        33.545462954000;     BAS[ATNO][  1].d[ 10] =         0.579892893403;
  BAS[ATNO][  1].a[ 11] =        14.683955144000;     BAS[ATNO][  1].d[ 11] =         0.574646987527;
  BAS[ATNO][  1].a[ 12] =        22.603101860000;     BAS[ATNO][  1].d[ 12] =         0.068141551849;
  BAS[ATNO][  1].a[ 13] =         4.065068299100;     BAS[ATNO][  1].d[ 13] =        -0.191215446651;
  BAS[ATNO][  1].a[ 14] =         1.961102706000;     BAS[ATNO][  1].d[ 14] =         0.134503042557;
  BAS[ATNO][  1].a[ 15] =         0.524651479800;     BAS[ATNO][  1].d[ 15] =        -0.043485993031;
  BAS[ATNO][  1].a[ 16] =         0.193323995100;     BAS[ATNO][  1].d[ 16] =         0.015549144407;

  // Basis function   3 L = s
  InitBFNGauss(BAS[ATNO][  2]);
  BAS[ATNO][  2].l  = 0;
  BAS[ATNO][  2].ng = 17;
  BAS[ATNO][  2].a[  0] =    600250.975749999983;     BAS[ATNO][  2].d[  0] =         0.000039175631;
  BAS[ATNO][  2].a[  1] =     89976.650781000004;     BAS[ATNO][  2].d[  1] =         0.000303797081;
  BAS[ATNO][  2].a[  2] =     20476.814224999998;     BAS[ATNO][  2].d[  2] =         0.001580773323;
  BAS[ATNO][  2].a[  3] =      5796.155407800000;     BAS[ATNO][  2].d[  3] =         0.006439003000;
  BAS[ATNO][  2].a[  4] =      1887.591319600000;     BAS[ATNO][  2].d[  4] =         0.021076815090;
  BAS[ATNO][  2].a[  5] =       679.114585190000;     BAS[ATNO][  2].d[  5] =         0.050488930839;
  BAS[ATNO][  2].a[  6] =       264.382445110000;     BAS[ATNO][  2].d[  6] =         0.074021680518;
  BAS[ATNO][  2].a[  7] =       104.883685740000;     BAS[ATNO][  2].d[  7] =         0.040796653663;
  BAS[ATNO][  2].a[  8] =       641.473707640000;     BAS[ATNO][  2].d[  8] =         0.007524041135;
  BAS[ATNO][  2].a[  9] =       199.575248200000;     BAS[ATNO][  2].d[  9] =         0.035365359433;
  BAS[ATNO][  2].a[ 10] =        33.545462954000;     BAS[ATNO][  2].d[ 10] =        -0.158901293694;
  BAS[ATNO][  2].a[ 11] =        14.683955144000;     BAS[ATNO][  2].d[ 11] =        -0.157463819223;
  BAS[ATNO][  2].a[ 12] =        22.603101860000;     BAS[ATNO][  2].d[ 12] =        -0.693010339998;
  BAS[ATNO][  2].a[ 13] =         4.065068299100;     BAS[ATNO][  2].d[ 13] =         1.944691280152;
  BAS[ATNO][  2].a[ 14] =         1.961102706000;     BAS[ATNO][  2].d[ 14] =        -0.728930040091;
  BAS[ATNO][  2].a[ 15] =         0.524651479800;     BAS[ATNO][  2].d[ 15] =         0.197396091006;
  BAS[ATNO][  2].a[ 16] =         0.193323995100;     BAS[ATNO][  2].d[ 16] =        -0.067308334982;

  // Basis function   4 L = s
  InitBFNGauss(BAS[ATNO][  3]);
  BAS[ATNO][  3].l  = 0;
  BAS[ATNO][  3].ng = 17;
  BAS[ATNO][  3].a[  0] =    600250.975749999983;     BAS[ATNO][  3].d[  0] =        -0.000032060431;
  BAS[ATNO][  3].a[  1] =     89976.650781000004;     BAS[ATNO][  3].d[  1] =        -0.000248620515;
  BAS[ATNO][  3].a[  2] =     20476.814224999998;     BAS[ATNO][  3].d[  2] =        -0.001293668381;
  BAS[ATNO][  3].a[  3] =      5796.155407800000;     BAS[ATNO][  3].d[  3] =        -0.005269531355;
  BAS[ATNO][  3].a[  4] =      1887.591319600000;     BAS[ATNO][  3].d[  4] =        -0.017248778728;
  BAS[ATNO][  3].a[  5] =       679.114585190000;     BAS[ATNO][  3].d[  5] =        -0.041318975023;
  BAS[ATNO][  3].a[  6] =       264.382445110000;     BAS[ATNO][  3].d[  6] =        -0.060577633901;
  BAS[ATNO][  3].a[  7] =       104.883685740000;     BAS[ATNO][  3].d[  7] =        -0.033387039212;
  BAS[ATNO][  3].a[  8] =       641.473707640000;     BAS[ATNO][  3].d[  8] =         0.010533564672;
  BAS[ATNO][  3].a[  9] =       199.575248200000;     BAS[ATNO][  3].d[  9] =         0.049511066468;
  BAS[ATNO][  3].a[ 10] =        33.545462954000;     BAS[ATNO][  3].d[ 10] =        -0.222459848848;
  BAS[ATNO][  3].a[ 11] =        14.683955144000;     BAS[ATNO][  3].d[ 11] =        -0.220447402340;
  BAS[ATNO][  3].a[ 12] =        22.603101860000;     BAS[ATNO][  3].d[ 12] =         0.994569007803;
  BAS[ATNO][  3].a[ 13] =         4.065068299100;     BAS[ATNO][  3].d[ 13] =        -2.790910272693;
  BAS[ATNO][  3].a[ 14] =         1.961102706000;     BAS[ATNO][  3].d[ 14] =         2.989823960894;
  BAS[ATNO][  3].a[ 15] =         0.524651479800;     BAS[ATNO][  3].d[ 15] =        -0.271498774018;
  BAS[ATNO][  3].a[ 16] =         0.193323995100;     BAS[ATNO][  3].d[ 16] =         0.088440121396;

  // Basis function   5 L = s
  InitBFNGauss(BAS[ATNO][  4]);
  BAS[ATNO][  4].l  = 0;
  BAS[ATNO][  4].ng = 17;
  BAS[ATNO][  4].a[  0] =    600250.975749999983;     BAS[ATNO][  4].d[  0] =        -0.000020991680;
  BAS[ATNO][  4].a[  1] =     89976.650781000004;     BAS[ATNO][  4].d[  1] =        -0.000162785154;
  BAS[ATNO][  4].a[  2] =     20476.814224999998;     BAS[ATNO][  4].d[  2] =        -0.000847033912;
  BAS[ATNO][  4].a[  3] =      5796.155407800000;     BAS[ATNO][  4].d[  3] =        -0.003450244144;
  BAS[ATNO][  4].a[  4] =      1887.591319600000;     BAS[ATNO][  4].d[  4] =        -0.011293698394;
  BAS[ATNO][  4].a[  5] =       679.114585190000;     BAS[ATNO][  4].d[  5] =        -0.027053743873;
  BAS[ATNO][  4].a[  6] =       264.382445110000;     BAS[ATNO][  4].d[  6] =        -0.039663418347;
  BAS[ATNO][  4].a[  7] =       104.883685740000;     BAS[ATNO][  4].d[  7] =        -0.021860281070;
  BAS[ATNO][  4].a[  8] =       641.473707640000;     BAS[ATNO][  4].d[  8] =         0.011087685205;
  BAS[ATNO][  4].a[  9] =       199.575248200000;     BAS[ATNO][  4].d[  9] =         0.052115607228;
  BAS[ATNO][  4].a[ 10] =        33.545462954000;     BAS[ATNO][  4].d[ 10] =        -0.234162399109;
  BAS[ATNO][  4].a[ 11] =        14.683955144000;     BAS[ATNO][  4].d[ 11] =        -0.232044087401;
  BAS[ATNO][  4].a[ 12] =        22.603101860000;     BAS[ATNO][  4].d[ 12] =         0.729573769953;
  BAS[ATNO][  4].a[ 13] =         4.065068299100;     BAS[ATNO][  4].d[ 13] =        -2.047293765717;
  BAS[ATNO][  4].a[ 14] =         1.961102706000;     BAS[ATNO][  4].d[ 14] =         3.331266869372;
  BAS[ATNO][  4].a[ 15] =         0.524651479800;     BAS[ATNO][  4].d[ 15] =        -2.393758184008;
  BAS[ATNO][  4].a[ 16] =         0.193323995100;     BAS[ATNO][  4].d[ 16] =         0.443457315869;

  // Basis function   6 L = s
  InitBFNGauss(BAS[ATNO][  5]);
  BAS[ATNO][  5].l  = 0;
  BAS[ATNO][  5].ng = 17;
  BAS[ATNO][  5].a[  0] =    600250.975749999983;     BAS[ATNO][  5].d[  0] =         0.000009075659;
  BAS[ATNO][  5].a[  1] =     89976.650781000004;     BAS[ATNO][  5].d[  1] =         0.000070379432;
  BAS[ATNO][  5].a[  2] =     20476.814224999998;     BAS[ATNO][  5].d[  2] =         0.000366211316;
  BAS[ATNO][  5].a[  3] =      5796.155407800000;     BAS[ATNO][  5].d[  3] =         0.001491697595;
  BAS[ATNO][  5].a[  4] =      1887.591319600000;     BAS[ATNO][  5].d[  4] =         0.004882779893;
  BAS[ATNO][  5].a[  5] =       679.114585190000;     BAS[ATNO][  5].d[  5] =         0.011696564936;
  BAS[ATNO][  5].a[  6] =       264.382445110000;     BAS[ATNO][  5].d[  6] =         0.017148301191;
  BAS[ATNO][  5].a[  7] =       104.883685740000;     BAS[ATNO][  5].d[  7] =         0.009451194565;
  BAS[ATNO][  5].a[  8] =       641.473707640000;     BAS[ATNO][  5].d[  8] =        -0.005304442174;
  BAS[ATNO][  5].a[  9] =       199.575248200000;     BAS[ATNO][  5].d[  9] =        -0.024932546316;
  BAS[ATNO][  5].a[ 10] =        33.545462954000;     BAS[ATNO][  5].d[ 10] =         0.112025267895;
  BAS[ATNO][  5].a[ 11] =        14.683955144000;     BAS[ATNO][  5].d[ 11] =         0.111011849697;
  BAS[ATNO][  5].a[ 12] =        22.603101860000;     BAS[ATNO][  5].d[ 12] =        -0.323367214514;
  BAS[ATNO][  5].a[ 13] =         4.065068299100;     BAS[ATNO][  5].d[ 13] =         0.907417055789;
  BAS[ATNO][  5].a[ 14] =         1.961102706000;     BAS[ATNO][  5].d[ 14] =        -1.739590150382;
  BAS[ATNO][  5].a[ 15] =         0.524651479800;     BAS[ATNO][  5].d[ 15] =         2.592907584527;
  BAS[ATNO][  5].a[ 16] =         0.193323995100;     BAS[ATNO][  5].d[ 16] =        -2.220503420249;

  // Basis function   7 L = p
  InitBFNGauss(BAS[ATNO][  6]);
  BAS[ATNO][  6].l  = 1;
  BAS[ATNO][  6].ng = 13;
  BAS[ATNO][  6].a[  0] =      3232.958961400000;     BAS[ATNO][  6].d[  0] =         0.002736648901;
  BAS[ATNO][  6].a[  1] =       765.964426940000;     BAS[ATNO][  6].d[  1] =         0.022410619106;
  BAS[ATNO][  6].a[  2] =       246.339408100000;     BAS[ATNO][  6].d[  2] =         0.106644979956;
  BAS[ATNO][  6].a[  3] =        92.365283041000;     BAS[ATNO][  6].d[  3] =         0.310112544373;
  BAS[ATNO][  6].a[  4] =        37.199509551000;     BAS[ATNO][  6].d[  4] =         0.496139567603;
  BAS[ATNO][  6].a[  5] =        15.172166534000;     BAS[ATNO][  6].d[  5] =         0.274011551351;
  BAS[ATNO][  6].a[  6] =        60.931321698000;     BAS[ATNO][  6].d[  6] =         0.001748472592;
  BAS[ATNO][  6].a[  7] =         9.479260064600;     BAS[ATNO][  6].d[  7] =        -0.025894371270;
  BAS[ATNO][  6].a[  8] =         4.256468632600;     BAS[ATNO][  6].d[  8] =        -0.045833761026;
  BAS[ATNO][  6].a[  9] =         1.972931376200;     BAS[ATNO][  6].d[  9] =        -0.025914147012;
  BAS[ATNO][  6].a[ 10] =         0.763371087200;     BAS[ATNO][  6].d[ 10] =         0.054223822937;
  BAS[ATNO][  6].a[ 11] =         0.309436255300;     BAS[ATNO][  6].d[ 11] =        -0.036293220395;
  BAS[ATNO][  6].a[ 12] =         0.115697044600;     BAS[ATNO][  6].d[ 12] =         0.012132247890;

  // Basis function   8 L = p
  InitBFNGauss(BAS[ATNO][  7]);
  BAS[ATNO][  7].l  = 1;
  BAS[ATNO][  7].ng = 13;
  BAS[ATNO][  7].a[  0] =      3232.958961400000;     BAS[ATNO][  7].d[  0] =        -0.001025106565;
  BAS[ATNO][  7].a[  1] =       765.964426940000;     BAS[ATNO][  7].d[  1] =        -0.008394673047;
  BAS[ATNO][  7].a[  2] =       246.339408100000;     BAS[ATNO][  7].d[  2] =        -0.039947568364;
  BAS[ATNO][  7].a[  3] =        92.365283041000;     BAS[ATNO][  7].d[  3] =        -0.116163386892;
  BAS[ATNO][  7].a[  4] =        37.199509551000;     BAS[ATNO][  7].d[  4] =        -0.185846247080;
  BAS[ATNO][  7].a[  5] =        15.172166534000;     BAS[ATNO][  7].d[  5] =        -0.102640510454;
  BAS[ATNO][  7].a[  6] =        60.931321698000;     BAS[ATNO][  7].d[  6] =        -0.024215162075;
  BAS[ATNO][  7].a[  7] =         9.479260064600;     BAS[ATNO][  7].d[  7] =         0.358619517356;
  BAS[ATNO][  7].a[  8] =         4.256468632600;     BAS[ATNO][  7].d[  8] =         0.634766570931;
  BAS[ATNO][  7].a[  9] =         1.972931376200;     BAS[ATNO][  7].d[  9] =         0.358893397986;
  BAS[ATNO][  7].a[ 10] =         0.763371087200;     BAS[ATNO][  7].d[ 10] =        -0.435090797985;
  BAS[ATNO][  7].a[ 11] =         0.309436255300;     BAS[ATNO][  7].d[ 11] =         0.260060542650;
  BAS[ATNO][  7].a[ 12] =         0.115697044600;     BAS[ATNO][  7].d[ 12] =        -0.082852270217;

  // Basis function   9 L = p
  InitBFNGauss(BAS[ATNO][  8]);
  BAS[ATNO][  8].l  = 1;
  BAS[ATNO][  8].ng = 13;
  BAS[ATNO][  8].a[  0] =      3232.958961400000;     BAS[ATNO][  8].d[  0] =         0.000282851420;
  BAS[ATNO][  8].a[  1] =       765.964426940000;     BAS[ATNO][  8].d[  1] =         0.002316291078;
  BAS[ATNO][  8].a[  2] =       246.339408100000;     BAS[ATNO][  8].d[  2] =         0.011022489579;
  BAS[ATNO][  8].a[  3] =        92.365283041000;     BAS[ATNO][  8].d[  3] =         0.032052256845;
  BAS[ATNO][  8].a[  4] =        37.199509551000;     BAS[ATNO][  8].d[  4] =         0.051279424649;
  BAS[ATNO][  8].a[  5] =        15.172166534000;     BAS[ATNO][  8].d[  5] =         0.028320971795;
  BAS[ATNO][  8].a[  6] =        60.931321698000;     BAS[ATNO][  8].d[  6] =         0.010214304215;
  BAS[ATNO][  8].a[  7] =         9.479260064600;     BAS[ATNO][  8].d[  7] =        -0.151270878810;
  BAS[ATNO][  8].a[  8] =         4.256468632600;     BAS[ATNO][  8].d[  8] =        -0.267753684272;
  BAS[ATNO][  8].a[  9] =         1.972931376200;     BAS[ATNO][  8].d[  9] =        -0.151386405605;
  BAS[ATNO][  8].a[ 10] =         0.763371087200;     BAS[ATNO][  8].d[ 10] =         1.674990706732;
  BAS[ATNO][  8].a[ 11] =         0.309436255300;     BAS[ATNO][  8].d[ 11] =        -0.768779863556;
  BAS[ATNO][  8].a[ 12] =         0.115697044600;     BAS[ATNO][  8].d[ 12] =         0.221996372905;

  // Basis function  10 L = p
  InitBFNGauss(BAS[ATNO][  9]);
  BAS[ATNO][  9].l  = 1;
  BAS[ATNO][  9].ng = 13;
  BAS[ATNO][  9].a[  0] =      3232.958961400000;     BAS[ATNO][  9].d[  0] =        -0.000102333814;
  BAS[ATNO][  9].a[  1] =       765.964426940000;     BAS[ATNO][  9].d[  1] =        -0.000838019132;
  BAS[ATNO][  9].a[  2] =       246.339408100000;     BAS[ATNO][  9].d[  2] =        -0.003987865445;
  BAS[ATNO][  9].a[  3] =        92.365283041000;     BAS[ATNO][  9].d[  3] =        -0.011596299237;
  BAS[ATNO][  9].a[  4] =        37.199509551000;     BAS[ATNO][  9].d[  4] =        -0.018552564201;
  BAS[ATNO][  9].a[  5] =        15.172166534000;     BAS[ATNO][  9].d[  5] =        -0.010246344437;
  BAS[ATNO][  9].a[  6] =        60.931321698000;     BAS[ATNO][  9].d[  6] =        -0.003991383892;
  BAS[ATNO][  9].a[  7] =         9.479260064600;     BAS[ATNO][  9].d[  7] =         0.059111236201;
  BAS[ATNO][  9].a[  8] =         4.256468632600;     BAS[ATNO][  9].d[  8] =         0.104628540530;
  BAS[ATNO][  9].a[  9] =         1.972931376200;     BAS[ATNO][  9].d[  9] =         0.059156379931;
  BAS[ATNO][  9].a[ 10] =         0.763371087200;     BAS[ATNO][  9].d[ 10] =        -1.295315982303;
  BAS[ATNO][  9].a[ 11] =         0.309436255300;     BAS[ATNO][  9].d[ 11] =         2.082898950089;
  BAS[ATNO][  9].a[ 12] =         0.115697044600;     BAS[ATNO][  9].d[ 12] =        -0.442432604879;

  // Basis function  11 L = p
  InitBFNGauss(BAS[ATNO][ 10]);
  BAS[ATNO][ 10].l  = 1;
  BAS[ATNO][ 10].ng = 13;
  BAS[ATNO][ 10].a[  0] =      3232.958961400000;     BAS[ATNO][ 10].d[  0] =         0.000040344486;
  BAS[ATNO][ 10].a[  1] =       765.964426940000;     BAS[ATNO][ 10].d[  1] =         0.000330383964;
  BAS[ATNO][ 10].a[  2] =       246.339408100000;     BAS[ATNO][ 10].d[  2] =         0.001572191782;
  BAS[ATNO][ 10].a[  3] =        92.365283041000;     BAS[ATNO][ 10].d[  3] =         0.004571770691;
  BAS[ATNO][ 10].a[  4] =        37.199509551000;     BAS[ATNO][ 10].d[  4] =         0.007314235992;
  BAS[ATNO][ 10].a[  5] =        15.172166534000;     BAS[ATNO][ 10].d[  5] =         0.004039559193;
  BAS[ATNO][ 10].a[  6] =        60.931321698000;     BAS[ATNO][ 10].d[  6] =         0.001573782403;
  BAS[ATNO][ 10].a[  7] =         9.479260064600;     BAS[ATNO][ 10].d[  7] =        -0.023307260307;
  BAS[ATNO][ 10].a[  8] =         4.256468632600;     BAS[ATNO][ 10].d[  8] =        -0.041254502297;
  BAS[ATNO][ 10].a[  9] =         1.972931376200;     BAS[ATNO][ 10].d[  9] =        -0.023325060250;
  BAS[ATNO][ 10].a[ 10] =         0.763371087200;     BAS[ATNO][ 10].d[ 10] =         0.624355143030;
  BAS[ATNO][ 10].a[ 11] =         0.309436255300;     BAS[ATNO][ 10].d[ 11] =        -1.607188000421;
  BAS[ATNO][ 10].a[ 12] =         0.115697044600;     BAS[ATNO][ 10].d[ 12] =         1.699663622626;

  // Basis function  12 L = d
  InitBFNGauss(BAS[ATNO][ 11]);
  BAS[ATNO][ 11].l  = 2;
  BAS[ATNO][ 11].ng = 8;
  BAS[ATNO][ 11].a[  0] =       186.417609040000;     BAS[ATNO][ 11].d[  0] =        -0.010616102824;
  BAS[ATNO][ 11].a[  1] =        55.274124345000;     BAS[ATNO][ 11].d[  1] =        -0.074448572395;
  BAS[ATNO][ 11].a[  2] =        20.283219120000;     BAS[ATNO][ 11].d[  2] =        -0.261103637863;
  BAS[ATNO][ 11].a[  3] =         8.088453697600;     BAS[ATNO][ 11].d[  3] =        -0.497597890495;
  BAS[ATNO][ 11].a[  4] =         3.221403385300;     BAS[ATNO][ 11].d[  4] =        -0.522702786109;
  BAS[ATNO][ 11].a[  5] =         1.195217010200;     BAS[ATNO][ 11].d[  5] =         0.536304333960;
  BAS[ATNO][ 11].a[  6] =         0.648000000000;     BAS[ATNO][ 11].d[  6] =        -0.372703722110;
  BAS[ATNO][ 11].a[  7] =         0.251000000000;     BAS[ATNO][ 11].d[  7] =         0.094220680237;

  // Basis function  13 L = d
  InitBFNGauss(BAS[ATNO][ 12]);
  BAS[ATNO][ 12].l  = 2;
  BAS[ATNO][ 12].ng = 8;
  BAS[ATNO][ 12].a[  0] =       186.417609040000;     BAS[ATNO][ 12].d[  0] =        -0.003158222988;
  BAS[ATNO][ 12].a[  1] =        55.274124345000;     BAS[ATNO][ 12].d[  1] =        -0.022147976206;
  BAS[ATNO][ 12].a[  2] =        20.283219120000;     BAS[ATNO][ 12].d[  2] =        -0.077676669580;
  BAS[ATNO][ 12].a[  3] =         8.088453697600;     BAS[ATNO][ 12].d[  3] =        -0.148032203764;
  BAS[ATNO][ 12].a[  4] =         3.221403385300;     BAS[ATNO][ 12].d[  4] =        -0.155500750343;
  BAS[ATNO][ 12].a[  5] =         1.195217010200;     BAS[ATNO][ 12].d[  5] =         1.773351559770;
  BAS[ATNO][ 12].a[  6] =         0.648000000000;     BAS[ATNO][ 12].d[  6] =        -0.920569292019;
  BAS[ATNO][ 12].a[  7] =         0.251000000000;     BAS[ATNO][ 12].d[  7] =         0.206999283309;

  // Basis function  14 L = d
  InitBFNGauss(BAS[ATNO][ 13]);
  BAS[ATNO][ 13].l  = 2;
  BAS[ATNO][ 13].ng = 8;
  BAS[ATNO][ 13].a[  0] =       186.417609040000;     BAS[ATNO][ 13].d[  0] =         0.001427108770;
  BAS[ATNO][ 13].a[  1] =        55.274124345000;     BAS[ATNO][ 13].d[  1] =         0.010008023881;
  BAS[ATNO][ 13].a[  2] =        20.283219120000;     BAS[ATNO][ 13].d[  2] =         0.035099819366;
  BAS[ATNO][ 13].a[  3] =         8.088453697600;     BAS[ATNO][ 13].d[  3] =         0.066891431372;
  BAS[ATNO][ 13].a[  4] =         3.221403385300;     BAS[ATNO][ 13].d[  4] =         0.070266249542;
  BAS[ATNO][ 13].a[  5] =         1.195217010200;     BAS[ATNO][ 13].d[  5] =        -1.559282272388;
  BAS[ATNO][ 13].a[  6] =         0.648000000000;     BAS[ATNO][ 13].d[  6] =         2.240379518162;
  BAS[ATNO][ 13].a[  7] =         0.251000000000;     BAS[ATNO][ 13].d[  7] =        -0.294139863545;

  // Basis function  15 L = d
  InitBFNGauss(BAS[ATNO][ 14]);
  BAS[ATNO][ 14].l  = 2;
  BAS[ATNO][ 14].ng = 8;
  BAS[ATNO][ 14].a[  0] =       186.417609040000;     BAS[ATNO][ 14].d[  0] =         0.000644293658;
  BAS[ATNO][ 14].a[  1] =        55.274124345000;     BAS[ATNO][ 14].d[  1] =         0.004518300530;
  BAS[ATNO][ 14].a[  2] =        20.283219120000;     BAS[ATNO][ 14].d[  2] =         0.015846438252;
  BAS[ATNO][ 14].a[  3] =         8.088453697600;     BAS[ATNO][ 14].d[  3] =         0.030199327403;
  BAS[ATNO][ 14].a[  4] =         3.221403385300;     BAS[ATNO][ 14].d[  4] =         0.031722949139;
  BAS[ATNO][ 14].a[  5] =         1.195217010200;     BAS[ATNO][ 14].d[  5] =        -0.881420767489;
  BAS[ATNO][ 14].a[  6] =         0.648000000000;     BAS[ATNO][ 14].d[  6] =         1.771926784167;
  BAS[ATNO][ 14].a[  7] =         0.251000000000;     BAS[ATNO][ 14].d[  7] =        -1.600325766794;

  // Basis function  16 L = f
  InitBFNGauss(BAS[ATNO][ 15]);
  BAS[ATNO][ 15].l  = 3;
  BAS[ATNO][ 15].ng = 1;
  BAS[ATNO][ 15].a[  0] =         0.628000000000;     BAS[ATNO][ 15].d[  0] =         1.000000000000;

-------
TIMINGS
-------

Total SCF time: 0 days 0 hours 0 min 1 sec 

Total time                  ....       1.491 sec
Sum of individual times     ....       1.322 sec  ( 88.6%)

Fock matrix formation       ....       0.606 sec  ( 40.6%)
  XC integration            ....       0.019 sec  (  3.1% of F)
    Basis function eval.    ....       0.003 sec  ( 17.5% of XC)
    Density eval.           ....       0.001 sec  (  6.9% of XC)
    XC-Functional eval.     ....       0.002 sec  (  8.8% of XC)
    XC-Potential eval.      ....       0.002 sec  (  8.8% of XC)
Diagonalization             ....       0.001 sec  (  0.0%)
Density matrix formation    ....       0.000 sec  (  0.0%)
Population analysis         ....       0.001 sec  (  0.0%)
Initial guess               ....       0.071 sec  (  4.8%)
Orbital Transformation      ....       0.000 sec  (  0.0%)
Orbital Orthonormalization  ....       0.000 sec  (  0.0%)
DIIS solution               ....       0.000 sec  (  0.0%)
SOSCF solution              ....       0.001 sec  (  0.0%)
Grid generation             ....       0.642 sec  ( 43.1%)

-------------------------   --------------------
FINAL SINGLE POINT ENERGY     -1273.409589956658
-------------------------   --------------------


                            ***************************************
                            *     ORCA property calculations      *
                            ***************************************

                                    ---------------------
                                    Active property flags
                                    ---------------------
   (+) Dipole Moment


------------------------------------------------------------------------------
                       ORCA ELECTRIC PROPERTIES CALCULATION
------------------------------------------------------------------------------

Dipole Moment Calculation                       ... on
Quadrupole Moment Calculation                   ... off
Polarizability Calculation                      ... off
GBWName                                         ... Kr_def2-tzvp_548.143956_.gbw
Electron density file                           ... Kr_def2-tzvp_548.143956_.scfp
The origin for moment calculation is the CENTER OF MASS  = ( 0.000000,  0.000000  0.000000)

-------------
DIPOLE MOMENT
-------------
                                X             Y             Z
Electronic contribution:      0.00000       0.00000      -0.00000
Nuclear contribution   :      0.00000       0.00000       0.00000
                        -----------------------------------------
Total Dipole Moment    :      0.00000       0.00000      -0.00000
                        -----------------------------------------
Magnitude (a.u.)       :      0.00000
Magnitude (Debye)      :      0.00000



--------------------
Rotational spectrum 
--------------------
 
Rotational constants in cm-1:     0.000000     0.000000     0.000000 
Rotational constants in MHz :     0.000000     0.000000     0.000000 

 Dipole components along the rotational axes: 
x,y,z [a.u.] :     0.000000     0.000000    -0.000000 
x,y,z [Debye]:     0.000000     0.000000    -0.000000 

 

Timings for individual modules:

Sum of individual times         ...        2.741 sec (=   0.046 min)
GTO integral calculation        ...        0.499 sec (=   0.008 min)  18.2 %
Relativistic integrals          ...        0.493 sec (=   0.008 min)  18.0 %
SCF iterations                  ...        1.750 sec (=   0.029 min)  63.8 %
                             ****ORCA TERMINATED NORMALLY****
TOTAL RUN TIME: 0 days 0 hours 0 minutes 3 seconds 60 msec
