
                                 *****************
                                 * O   R   C   A *
                                 *****************

           --- An Ab Initio, DFT and Semiempirical electronic structure package ---

                  #######################################################
                  #                        -***-                        #
                  #          Department of theory and spectroscopy      #
                  #               Directorship: Frank Neese             #
                  #        Max Planck Institute fuer Kohlenforschung    #
                  #                Kaiser Wilhelm Platz 1               #
                  #                 D-45470 Muelheim/Ruhr               #
                  #                      Germany                        #
                  #                                                     #
                  #                  All rights reserved                #
                  #                        -***-                        #
                  #######################################################


                         Program Version 4.2.1 -  RELEASE  -


 With contributions from (in alphabetic order):
   Daniel Aravena         : Magnetic Suceptibility
   Michael Atanasov       : Ab Initio Ligand Field Theory (pilot matlab implementation)
   Alexander A. Auer      : GIAO ZORA, VPT2
   Ute Becker             : Parallelization
   Giovanni Bistoni       : ED, misc. LED, open-shell LED, HFLD
   Martin Brehm           : Molecular dynamics
   Dmytro Bykov           : SCF Hessian
   Vijay G. Chilkuri      : MRCI spin determinant printing, contributions to CSF-ICE
   Dipayan Datta          : RHF DLPNO-CCSD density
   Achintya Kumar Dutta   : EOM-CC, STEOM-CC
   Dmitry Ganyushin       : Spin-Orbit,Spin-Spin,Magnetic field MRCI
   Miquel Garcia          : C-PCM Hessian, Gaussian charge scheme
   Yang Guo               : DLPNO-NEVPT2, CIM, IAO-localization
   Andreas Hansen         : Spin unrestricted coupled pair/coupled cluster methods
   Benjamin Helmich-Paris : CASSCF linear response (MC-RPA)
   Lee Huntington         : MR-EOM, pCC
   Robert Izsak           : Overlap fitted RIJCOSX, COSX-SCS-MP3, EOM
   Christian Kollmar      : KDIIS, OOCD, Brueckner-CCSD(T), CCSD density
   Simone Kossmann        : Meta GGA functionals, TD-DFT gradient, OOMP2, MP2 Hessian
   Martin Krupicka        : AUTO-CI
   Lucas Lang             : DCDCAS
   Dagmar Lenk            : GEPOL surface, SMD
   Dimitrios Liakos       : Extrapolation schemes; Compound Job, initial MDCI parallelization
   Dimitrios Manganas     : Further ROCIS development; embedding schemes
   Dimitrios Pantazis     : SARC Basis sets
   Taras Petrenko         : DFT Hessian,TD-DFT gradient, ASA, ECA, R-Raman, ABS, FL, XAS/XES, NRVS
   Peter Pinski           : DLPNO-MP2, DLPNO-MP2 Gradient
   Christoph Reimann      : Effective Core Potentials
   Marius Retegan         : Local ZFS, SOC
   Christoph Riplinger    : Optimizer, TS searches, QM/MM, DLPNO-CCSD(T), (RO)-DLPNO pert. Triples
   Tobias Risthaus        : Range-separated hybrids, TD-DFT gradient, RPA, STAB
   Michael Roemelt        : Original ROCIS implementation
   Masaaki Saitow         : Open-shell DLPNO-CCSD energy and density
   Barbara Sandhoefer     : DKH picture change effects
   Avijit Sen             : IP-ROCIS
   Kantharuban Sivalingam : CASSCF convergence, NEVPT2, FIC-MRCI
   Bernardo de Souza      : ESD, SOC TD-DFT
   Georgi Stoychev        : AutoAux, RI-MP2 NMR
   Willem Van den Heuvel  : Paramagnetic NMR
   Boris Wezisla          : Elementary symmetry handling
   Frank Wennmohs         : Technical directorship


 We gratefully acknowledge several colleagues who have allowed us to
 interface, adapt or use parts of their codes:
   Stefan Grimme, W. Hujo, H. Kruse,             : VdW corrections, initial TS optimization,
                  C. Bannwarth                     DFT functionals, gCP, sTDA/sTD-DF
   Ed Valeev, F. Pavosevic, A. Kumar             : LibInt (2-el integral package), F12 methods
   Garnet Chan, S. Sharma, J. Yang, R. Olivares  : DMRG
   Ulf Ekstrom                                   : XCFun DFT Library
   Mihaly Kallay                                 : mrcc  (arbitrary order and MRCC methods)
   Andreas Klamt, Michael Diedenhofen            : otool_cosmo (COSMO solvation model)
   Jiri Pittner, Ondrej Demel                    : Mk-CCSD
   Frank Weinhold                                : gennbo (NPA and NBO analysis)
   Christopher J. Cramer and Donald G. Truhlar   : smd solvation model
   Lars Goerigk                                  : TD-DFT with DH, B97 family of functionals
   V. Asgeirsson, H. Jonsson                     : NEB implementation
   FAccTs GmbH                                   : IRC, NEB, NEB-TS, Multilevel, MM, QM/MM, CI optimization
   S Lehtola, MJT Oliveira, MAL Marques          : LibXC Library


 Your calculation uses the libint2 library for the computation of 2-el integrals
 For citations please refer to: http://libint.valeyev.net

 Your ORCA version has been built with support for libXC version: 4.2.3
 For citations please refer to: https://tddft.org/programs/libxc/

 This ORCA versions uses:
   CBLAS   interface :  Fast vector & matrix operations
   LAPACKE interface :  Fast linear algebra routines
   SCALAPACK package :  Parallel linear algebra routines


----- Orbital basis set information -----
Your calculation utilizes the basis: def2-TZVP
   F. Weigend and R. Ahlrichs, Phys. Chem. Chem. Phys. 7, 3297 (2005).

================================================================================
                                        WARNINGS
                       Please study these warnings very carefully!
================================================================================


INFO   : the flag for use of LIBINT has been found!

================================================================================
                                       INPUT FILE
================================================================================
NAME = Kr_def2-tzvp_1096.287912_.inp
|  1> ! LDA def2-tzvp nori grid5 finalgrid6 verytightscf
|  2> %Pal NProcs 18 End
|  3> 
|  4> % REL
|  5>   Method ZORA
|  6>   ModelPot 1, 0, 0, 0
|  7>   velit 1096.287912
|  8> END
|  9> 
| 10> *xyz 34 1
| 11> Kr 0.0 0.0 0.0
| 12> **                         ****END OF INPUT****
================================================================================

                       ****************************
                       * Single Point Calculation *
                       ****************************

---------------------------------
CARTESIAN COORDINATES (ANGSTROEM)
---------------------------------
  Kr     0.000000    0.000000    0.000000

----------------------------
CARTESIAN COORDINATES (A.U.)
----------------------------
  NO LB      ZA    FRAG     MASS         X           Y           Z
   0 Kr   36.0000    0    83.800    0.000000    0.000000    0.000000

--------------------------------
INTERNAL COORDINATES (ANGSTROEM)
--------------------------------
 Kr     0   0   0     0.000000000000     0.00000000     0.00000000

---------------------------
INTERNAL COORDINATES (A.U.)
---------------------------
 Kr     0   0   0     0.000000000000     0.00000000     0.00000000

---------------------
BASIS SET INFORMATION
---------------------
There are 1 groups of distinct atoms

 Group   1 Type Kr  : 17s13p8d1f contracted to 6s5p4d1f pattern {842111/64111/5111/1}

Atom   0Kr   basis set group =>   1


           ************************************************************
           *        Program running with 18 parallel MPI-processes    *
           *              working on a common directory               *
           ************************************************************
------------------------------------------------------------------------------
                           ORCA GTO INTEGRAL CALCULATION
------------------------------------------------------------------------------

                         BASIS SET STATISTICS AND STARTUP INFO

 # of primitive gaussian shells          ...   39
 # of primitive gaussian functions       ...  103
 # of contracted shells                  ...   16
 # of contracted basis functions         ...   48
 Highest angular momentum                ...    3
 Maximum contraction depth               ...    8
 Integral package used                   ... LIBINT
 Integral threshhold            Thresh   ...  1.000e-12
 Primitive cut-off              TCut     ...  1.000e-14


------------------------------ INTEGRAL EVALUATION ----------------------------


 * One electron integrals 
 Pre-screening matrix                    ... done
 Shell pair data                         ... done (   0.000 sec)



           ************************************************************
           *        Program running with 18 parallel MPI-processes    *
           *              working on a common directory               *
           ************************************************************
------------------------------------------------------------------------------
                          ORCA RELATIVISTIC HAMILTONIAN
------------------------------------------------------------------------------

Relativistic Method            ... ZORA(MP)
Treatment of potential         ... Van Wuellen
Nucleus model                  ... Point Nucleus
Speed of light used            ... 1096.28791200000001


            *************************************************
            *         ZERO ORDER REGULAR APPROXIMATION      *
            *                     ZORA(MP)                  *
            *            Programmed by FN according to      *
            *                   C. van Wuellen              *
            *       J. Chem. Phys. (1998) vol 109, 392-399  *
            *************************************************

Terms included in model potential: +V(e,N)
Basis function cutoff value   ... 1.000000e-12
Loading the fitted atomic densities  (DKH4)  ... done
Calculating the cutoffs                      ... done
Number of fit functions                      ... 27
Setting up the integration grid ... done


           ************************************************************
           *        Program running with 18 parallel MPI-processes    *
           *              working on a common directory               *
           ************************************************************
-------------------------------------------------------------------------------
                                 ORCA SCF
-------------------------------------------------------------------------------

------------
SCF SETTINGS
------------
Hamiltonian:
 Density Functional     Method          .... DFT(GTOs)
 Exchange Functional    Exchange        .... Slater
   X-Alpha parameter    XAlpha          ....  0.666667
 Correlation Functional Correlation     .... VWN-5
 Gradients option       PostSCFGGA      .... off
   Density functional embedding theory  .... OFF

Relativistic Settings:
 Scalar relativistic method             .... ZORA
 Speed of light used       Velit        ....       1096.28791
Orbital energies will be scaled


General Settings:
 Integral files         IntName         .... Kr_def2-tzvp_1096.287912_
 Hartree-Fock type      HFTyp           .... RHF
 Total Charge           Charge          ....   34
 Multiplicity           Mult            ....    1
 Number of Electrons    NEL             ....    2
 Basis Dimension        Dim             ....   48
 Nuclear Repulsion      ENuc            ....      0.0000000000 Eh

Convergence Acceleration:
 DIIS                   CNVDIIS         .... on
   Start iteration      DIISMaxIt       ....    12
   Startup error        DIISStart       ....  0.200000
   # of expansion vecs  DIISMaxEq       ....     5
   Bias factor          DIISBfac        ....   1.050
   Max. coefficient     DIISMaxC        ....  10.000
 Newton-Raphson         CNVNR           .... off
 SOSCF                  CNVSOSCF        .... on
   Start iteration      SOSCFMaxIt      ....   150
   Startup grad/error   SOSCFStart      ....  0.003300
 Level Shifting         CNVShift        .... on
   Level shift para.    LevelShift      ....    0.2500
   Turn off err/grad.   ShiftErr        ....    0.0010
 Zerner damping         CNVZerner       .... off
 Static damping         CNVDamp         .... on
   Fraction old density DampFac         ....    0.7000
   Max. Damping (<1)    DampMax         ....    0.9800
   Min. Damping (>=0)   DampMin         ....    0.0000
   Turn off err/grad.   DampErr         ....    0.1000
 Fernandez-Rico         CNVRico         .... off

SCF Procedure:
 Maximum # iterations   MaxIter         ....   125
 SCF integral mode      SCFMode         .... Direct
   Integral package                     .... LIBINT
 Reset frequency        DirectResetFreq ....    20
 Integral Threshold     Thresh          ....  1.000e-12 Eh
 Primitive CutOff       TCut            ....  1.000e-14 Eh

Convergence Tolerance:
 Convergence Check Mode ConvCheckMode   .... Total+1el-Energy
 Convergence forced     ConvForced      .... 0
 Energy Change          TolE            ....  1.000e-09 Eh
 1-El. energy change                    ....  1.000e-06 Eh
 Orbital Gradient       TolG            ....  2.000e-06
 Orbital Rotation angle TolX            ....  2.000e-06
 DIIS Error             TolErr          ....  1.000e-08


Diagonalization of the overlap matrix:
Smallest eigenvalue                        ... 2.275e-02
Time for diagonalization                   ...    0.001 sec
Threshold for overlap eigenvalues          ... 1.000e-08
Number of eigenvalues below threshold      ... 0
Time for construction of square roots      ...    0.001 sec
Total time needed                          ...    0.002 sec

-------------------
DFT GRID GENERATION
-------------------

General Integration Accuracy     IntAcc      ...  5.010
Radial Grid Type                 RadialGrid  ... Gauss-Chebyshev
Angular Grid (max. acc.)         AngularGrid ... Lebedev-434
Angular grid pruning method      GridPruning ... 3 (G Style)
Weight generation scheme         WeightScheme... Becke
Basis function cutoff            BFCut       ...    1.0000e-12
Integration weight cutoff        WCut        ...    1.0000e-14
Grids for H and He will be reduced by one unit

# of grid points (after initial pruning)     ...  16106 (   0.0 sec)
# of grid points (after weights+screening)   ...  16106 (   0.0 sec)
Grid point division into batches done        ...    0.2 sec
Reduced shell lists constructed in    0.2 sec

Total number of grid points                  ...    16106
Total number of batches                      ...      252
Average number of points per batch           ...       63
Average number of grid points per atom       ...    16106
Average number of shells per batch           ...     0.53 ( 3.33%)
Average number of basis functions per batch  ...     1.60 ( 3.33%)
Average number of large shells per batch     ...     0.53 (100.00%)
Average number of large basis fcns per batch ...     1.60 (100.00%)
Maximum spatial batch extension              ...  17.34, 17.34, 17.34 au
Average spatial batch extension              ...   0.86,  0.87,  0.87 au

Time for grid setup =    0.246 sec

------------------------------
INITIAL GUESS: MODEL POTENTIAL
------------------------------
Loading ZORA relativistic densities                ... done
Calculating cut-offs                               ... done
Setting up the integral package                    ... done
Initializing the effective Hamiltonian             ... done
Starting the Coulomb interaction                   ... done (   0.0 sec)
Reading the grid                                   ... done
Mapping shells                                     ... done
Starting the XC term evaluation                    ... done (   0.0 sec)
  promolecular density results
     # of electrons  =     36.000000565
     EX              =    -91.042004939
     EC              =     -3.295965580
     EX+EC           =    -94.337970520
Transforming the Hamiltonian                       ... done (   0.0 sec)
Diagonalizing the Hamiltonian                      ... done (   0.0 sec)
Back transforming the eigenvectors                 ... done (   0.0 sec)
Now organizing SCF variables                       ... done
                      ------------------
                      INITIAL GUESS DONE (   0.3 sec)
                      ------------------
--------------
SCF ITERATIONS
--------------
ITER       Energy         Delta-E        Max-DP      RMS-DP      [F,P]     Damp
               ***  Starting incremental Fock matrix formation  ***
  0  -1271.3329808290   0.000000000000 0.00437622  0.00017134  5.9754780 0.7000
                      *** Initiating the SOSCF procedure ***
                      *** Re-Reading the Fockian *** 
                      *** Removing any level shift *** 
ITER      Energy       Delta-E        Grad      Rot      Max-DP    RMS-DP
  1  -1271.34806798  -0.0150871512  0.002260  0.002260  0.010201  0.000399
               *** Restarting incremental Fock matrix formation ***
  2  -1271.38312216  -0.0350541813  0.009194  0.000020  0.000052  0.000002
  3  -1271.38312259  -0.0000004309  0.000037  0.000000  0.000000  0.000000
                 **** Energy Check signals convergence ****
              ***Rediagonalizing the Fockian in SOSCF/NRSCF***

               *****************************************************
               *                     SUCCESS                       *
               *           SCF CONVERGED AFTER   4 CYCLES          *
               *****************************************************

Setting up the final grid:

General Integration Accuracy     IntAcc      ...  5.340
Radial Grid Type                 RadialGrid  ... Gauss-Chebyshev
Angular Grid (max. acc.)         AngularGrid ... Lebedev-590
Angular grid pruning method      GridPruning ... 3 (G Style)
Weight generation scheme         WeightScheme... Becke
Basis function cutoff            BFCut       ...    1.0000e-12
Integration weight cutoff        WCut        ...    1.0000e-14
Grids for H and He will be reduced by one unit

# of grid points (after initial pruning)     ...  24180 (   0.0 sec)
# of grid points (after weights+screening)   ...  24180 (   0.0 sec)
Grid point division into batches done        ...    0.4 sec
Reduced shell lists constructed in    0.4 sec

Total number of grid points                  ...    24180
Total number of batches                      ...      378
Average number of points per batch           ...       63
Average number of grid points per atom       ...    24180
Average number of shells per batch           ...     0.14 ( 0.85%)
Average number of basis functions per batch  ...     0.41 ( 0.85%)
Average number of large shells per batch     ...     0.14 (100.00%)
Average number of large basis fcns per batch ...     0.41 (100.00%)
Maximum spatial batch extension              ...  17.58, 17.58, 17.58 au
Average spatial batch extension              ...   0.77,  0.77,  0.77 au

Final grid set up in    0.4 sec
Final integration                            ... done (   0.0 sec)
Change in XC energy                          ...     0.000002240
Integrated number of electrons               ...     1.999999985
Previous integrated no of electrons          ...     2.000000015

----------------
TOTAL SCF ENERGY
----------------

Total Energy       :        -1271.38312035 Eh          -34596.09354 eV

Components:
Nuclear Repulsion  :            0.00000000 Eh               0.00000 eV
Electronic Energy  :        -1271.38312035 Eh          -34596.09354 eV
One Electron Energy:        -1296.46432519 Eh          -35278.58782 eV
Two Electron Energy:           25.08120483 Eh             682.49428 eV

Virial components:
Potential Energy   :        -2537.19712108 Eh          -69040.64362 eV
Kinetic Energy     :         1265.81400072 Eh           34444.55009 eV
Virial Ratio       :            2.00439964


DFT components:
N(Alpha)           :        0.999999992479 electrons
N(Beta)            :        0.999999992479 electrons
N(Total)           :        1.999999984958 electrons
E(X)               :      -19.050078198850 Eh       
E(C)               :       -0.277868527791 Eh       
E(XC)              :      -19.327946726641 Eh       
DFET-embed. en.    :        0.000000000000 Eh       

---------------
SCF CONVERGENCE
---------------

  Last Energy change         ...   -7.9581e-12  Tolerance :   1.0000e-09
  Last MAX-Density change    ...    0.0000e+00  Tolerance :   1.0000e-08
  Last RMS-Density change    ...    0.0000e+00  Tolerance :   1.0000e-09
  Last Orbital Gradient      ...    2.0593e-11  Tolerance :   2.0000e-06
  Last Orbital Rotation      ...    0.0000e+00  Tolerance :   2.0000e-06

================================================================================
                                        WARNING
Number of found core electrons (2) does not match given number of chemical core electrons (18)
================================================================================
             **** THE GBW FILE WAS UPDATED (Kr_def2-tzvp_1096.287912_.gbw) ****
             **** DENSITY FILE WAS UPDATED (Kr_def2-tzvp_1096.287912_.scfp) ****
             **** ENERGY FILE WAS UPDATED (Kr_def2-tzvp_1096.287912_.en.tmp) ****
             **** THE GBW FILE WAS UPDATED (Kr_def2-tzvp_1096.287912_.gbw) ****
             **** DENSITY FILE WAS UPDATED (Kr_def2-tzvp_1096.287912_.scfp) ****
----------------
ORBITAL ENERGIES
----------------

  NO   OCC          E(Eh)            E(eV) 
   0   2.0000    -616.671835    -16780.4937 
   1   0.0000    -148.611344     -4043.9202 
   2   0.0000    -146.408695     -3983.9831 
   3   0.0000    -146.408695     -3983.9831 
   4   0.0000    -146.408695     -3983.9831 
   5   0.0000     -63.614222     -1731.0310 
   6   0.0000     -59.206807     -1611.0991 
   7   0.0000     -59.206807     -1611.0991 
   8   0.0000     -59.206807     -1611.0991 
   9   0.0000     -58.157546     -1582.5473 
  10   0.0000     -58.157546     -1582.5473 
  11   0.0000     -58.157546     -1582.5473 
  12   0.0000     -58.157546     -1582.5473 
  13   0.0000     -58.157546     -1582.5473 
  14   0.0000     -34.018687      -925.6955 
  15   0.0000     -26.803124      -729.3501 
  16   0.0000     -26.803124      -729.3501 
  17   0.0000     -26.803124      -729.3501 
  18   0.0000     -26.803124      -729.3501 
  19   0.0000     -26.803124      -729.3501 
  20   0.0000     -26.652439      -725.2497 
  21   0.0000     -26.652439      -725.2497 
  22   0.0000     -26.652439      -725.2497 
  23   0.0000     -20.321815      -552.9847 
  24   0.0000     -16.830858      -457.9909 
  25   0.0000     -16.830858      -457.9909 
  26   0.0000     -16.830858      -457.9909 
  27   0.0000     -16.830858      -457.9909 
  28   0.0000     -16.830858      -457.9909 
  29   0.0000     -16.830858      -457.9909 
  30   0.0000     -16.830858      -457.9909 
  31   0.0000     -15.962505      -434.3619 
  32   0.0000     -15.962505      -434.3619 
  33   0.0000     -15.962505      -434.3619 
  34   0.0000     -15.962505      -434.3619 
  35   0.0000     -15.962505      -434.3619 
  36   0.0000     -14.402223      -391.9044 
  37   0.0000     -14.402223      -391.9044 
  38   0.0000     -14.402223      -391.9044 
  39   0.0000     -12.152959      -330.6988 
  40   0.0000     -10.267895      -279.4036 
  41   0.0000     -10.267895      -279.4036 
  42   0.0000     -10.267895      -279.4036 
  43   0.0000     -10.267895      -279.4036 
  44   0.0000     -10.267895      -279.4036 
  45   0.0000      -8.426410      -229.2943 
  46   0.0000      -8.426410      -229.2943 
  47   0.0000      -8.426410      -229.2943 

                    ********************************
                    * MULLIKEN POPULATION ANALYSIS *
                    ********************************

-----------------------
MULLIKEN ATOMIC CHARGES
-----------------------
   0 Kr:   34.000000
Sum of atomic charges:   34.0000000

--------------------------------
MULLIKEN REDUCED ORBITAL CHARGES
--------------------------------
  0 Krs       :     2.000000  s :     2.000000
      pz      :     0.000000  p :     0.000000
      px      :     0.000000
      py      :     0.000000
      dz2     :     0.000000  d :     0.000000
      dxz     :     0.000000
      dyz     :     0.000000
      dx2y2   :     0.000000
      dxy     :     0.000000
      f0      :     0.000000  f :     0.000000
      f+1     :     0.000000
      f-1     :     0.000000
      f+2     :     0.000000
      f-2     :     0.000000
      f+3     :     0.000000
      f-3     :     0.000000


                     *******************************
                     * LOEWDIN POPULATION ANALYSIS *
                     *******************************

----------------------
LOEWDIN ATOMIC CHARGES
----------------------
   0 Kr:   34.000000

-------------------------------
LOEWDIN REDUCED ORBITAL CHARGES
-------------------------------
  0 Krs       :     2.000000  s :     2.000000
      pz      :     0.000000  p :     0.000000
      px      :     0.000000
      py      :     0.000000
      dz2     :     0.000000  d :     0.000000
      dxz     :     0.000000
      dyz     :     0.000000
      dx2y2   :     0.000000
      dxy     :     0.000000
      f0      :     0.000000  f :     0.000000
      f+1     :     0.000000
      f-1     :     0.000000
      f+2     :     0.000000
      f-2     :     0.000000
      f+3     :     0.000000
      f-3     :     0.000000


                      *****************************
                      * MAYER POPULATION ANALYSIS *
                      *****************************

  NA   - Mulliken gross atomic population
  ZA   - Total nuclear charge
  QA   - Mulliken gross atomic charge
  VA   - Mayer's total valence
  BVA  - Mayer's bonded valence
  FA   - Mayer's free valence

  ATOM       NA         ZA         QA         VA         BVA        FA
  0 Kr     2.0000    36.0000    34.0000     0.0000     0.0000     0.0000

  Mayer bond orders larger than 0.100000


--------------------------
ATOM BASIS FOR ELEMENT Kr
--------------------------
 NewGTO Kr
 S 17
    1     600250.975749999983         0.000230217605
    2      89976.650781000004         0.001785279144
    3      20476.814224999998         0.009289495603
    4       5796.155407800000         0.037839131772
    5       1887.591319600000         0.123858986172
    6        679.114585190000         0.296700794682
    7        264.382445110000         0.434992206574
    8        104.883685740000         0.239743630159
    9        641.473707640000        -0.000046083814
   10        199.575248200000        -0.000216608420
   11         33.545462954000         0.000973250625
   12         14.683955144000         0.000964446273
   13         22.603101860000        -0.000703181609
   14          4.065068299100         0.001973233391
   15          1.961102706000        -0.001741788906
   16          0.524651479800         0.000649309382
   17          0.193323995100        -0.000240647282
 S 17
    1     600250.975749999983         0.000078801606
    2      89976.650781000004         0.000611086473
    3      20476.814224999998         0.003179718491
    4       5796.155407800000         0.012952025829
    5       1887.591319600000         0.042395919593
    6        679.114585190000         0.101558259301
    7        264.382445110000         0.148894280369
    8        104.883685740000         0.082062286970
    9        641.473707640000         0.027458350292
   10        199.575248200000         0.129062881252
   11         33.545462954000        -0.579896800927
   12         14.683955144000        -0.574650859701
   13         22.603101860000        -0.066993800738
   14          4.065068299100         0.187994684351
   15          1.961102706000        -0.131929842735
   16          0.524651479800         0.042539955146
   17          0.193323995100        -0.015198950357
 S 17
    1     600250.975749999983        -0.000039285993
    2      89976.650781000004        -0.000304652913
    3      20476.814224999998        -0.001585226549
    4       5796.155407800000        -0.006457142437
    5       1887.591319600000        -0.021136190983
    6        679.114585190000        -0.050631164157
    7        264.382445110000        -0.074230208388
    8        104.883685740000        -0.040911582684
    9        641.473707640000        -0.007558859231
   10        199.575248200000        -0.035529015433
   11         33.545462954000         0.159636622009
   12         14.683955144000         0.158192495511
   13         22.603101860000         0.692108272439
   14          4.065068299100        -1.942159942862
   15          1.961102706000         0.725764027641
   16          0.524651479800        -0.196310071319
   17          0.193323995100         0.066915761747
 S 17
    1     600250.975749999983        -0.000032148843
    2      89976.650781000004        -0.000249306123
    3      20476.814224999998        -0.001297235864
    4       5796.155407800000        -0.005284062869
    5       1887.591319600000        -0.017296344794
    6        679.114585190000        -0.041432918224
    7        264.382445110000        -0.060744685711
    8        104.883685740000        -0.033479108925
    9        641.473707640000         0.010509791400
   10        199.575248200000         0.049399324614
   11         33.545462954000        -0.221957777740
   12         14.683955144000        -0.219949873136
   13         22.603101860000         0.994599612082
   14          4.065068299100        -2.790996152904
   15          1.961102706000         2.988082995898
   16          0.524651479800        -0.269778121701
   17          0.193323995100         0.087871233901
 S 17
    1     600250.975749999983        -0.000021060450
    2      89976.650781000004        -0.000163318452
    3      20476.814224999998        -0.000849808864
    4       5796.155407800000        -0.003461547425
    5       1887.591319600000        -0.011330697469
    6        679.114585190000        -0.027142374142
    7        264.382445110000        -0.039793358937
    8        104.883685740000        -0.021931897132
    9        641.473707640000         0.011085203298
   10        199.575248200000         0.052103941487
   11         33.545462954000        -0.234109983371
   12         14.683955144000        -0.231992145833
   13         22.603101860000         0.730307406076
   14          4.065068299100        -2.049352459057
   15          1.961102706000         3.332874602068
   16          0.524651479800        -2.393304047611
   17          0.193323995100         0.442947443985
 S 17
    1     600250.975749999983        -0.000009106425
    2      89976.650781000004        -0.000070618019
    3      20476.814224999998        -0.000367452775
    4       5796.155407800000        -0.001496754459
    5       1887.591319600000        -0.004899332548
    6        679.114585190000        -0.011736216363
    7        264.382445110000        -0.017206434038
    8        104.883685740000        -0.009483234173
    9        641.473707640000         0.005306181007
   10        199.575248200000         0.024940719379
   11         33.545462954000        -0.112061990562
   12         14.683955144000        -0.111048240158
   13         22.603101860000         0.323790247455
   14          4.065068299100        -0.908604149869
   15          1.961102706000         1.741024044221
   16          0.524651479800        -2.593604630597
   17          0.193323995100         2.220642089125
 P 13
    1       3232.958961400000         0.002736311031
    2        765.964426940000         0.022407852262
    3        246.339408100000         0.106631813426
    4         92.365283041000         0.310074257468
    5         37.199509551000         0.496078313556
    6         15.172166534000         0.273977721522
    7         60.931321698000         0.001740241671
    8          9.479260064600        -0.025772473719
    9          4.256468632600        -0.045617998953
   10          1.972931376200        -0.025792156366
   11          0.763371087200         0.053955404435
   12          0.309436255300        -0.036111372978
   13          0.115697044600         0.012071157235
 P 13
    1       3232.958961400000         0.001025927830
    2        765.964426940000         0.008401398448
    3        246.339408100000         0.039979572399
    4         92.365283041000         0.116256451308
    5         37.199509551000         0.185995137990
    6         15.172166534000         0.102722741003
    7         60.931321698000         0.024214695633
    8          9.479260064600        -0.358612609486
    9          4.256468632600        -0.634754343808
   10          1.972931376200        -0.358886484841
   11          0.763371087200         0.434925149700
   12          0.309436255300        -0.259944414756
   13          0.115697044600         0.082813212144
 P 13
    1       3232.958961400000         0.000283106847
    2        765.964426940000         0.002318382788
    3        246.339408100000         0.011032443361
    4         92.365283041000         0.032081201409
    5         37.199509551000         0.051325732171
    6         15.172166534000         0.028346546849
    7         60.931321698000         0.010216430435
    8          9.479260064600        -0.151302367506
    9          4.256468632600        -0.267809420145
   10          1.972931376200        -0.151417918350
   11          0.763371087200         1.674990236709
   12          0.309436255300        -0.768732771568
   13          0.115697044600         0.221979518947
 P 13
    1       3232.958961400000         0.000102419634
    2        765.964426940000         0.000838721915
    3        246.339408100000         0.003991209764
    4         92.365283041000         0.011606024170
    5         37.199509551000         0.018568122825
    6         15.172166534000         0.010254937266
    7         60.931321698000         0.003992243114
    8          9.479260064600        -0.059123961030
    9          4.256468632600        -0.104651063834
   10          1.972931376200        -0.059169114478
   11          0.763371087200         1.295368728733
   12          0.309436255300        -2.082909547009
   13          0.115697044600         0.442421657215
 P 13
    1       3232.958961400000         0.000040376381
    2        765.964426940000         0.000330645152
    3        246.339408100000         0.001573434695
    4         92.365283041000         0.004575384952
    5         37.199509551000         0.007320018339
    6         15.172166534000         0.004042752709
    7         60.931321698000         0.001574101700
    8          9.479260064600        -0.023311989004
    9          4.256468632600        -0.041262872223
   10          1.972931376200        -0.023329792558
   11          0.763371087200         0.624385637072
   12          0.309436255300        -1.607219674517
   13          0.115697044600         1.699671012018
 D 8
    1        186.417609040000         0.010615991980
    2         55.274124345000         0.074447795071
    3         20.283219120000         0.261100911656
    4          8.088453697600         0.497592695030
    5          3.221403385300         0.522697328521
    6          1.195217010200        -0.536233749485
    7          0.648000000000         0.372650182750
    8          0.251000000000        -0.094206357876
 D 8
    1        186.417609040000         0.003158505650
    2         55.274124345000         0.022149958460
    3         20.283219120000         0.077683621678
    4          8.088453697600         0.148045452716
    5          3.221403385300         0.155514667734
    6          1.195217010200        -1.773322063834
    7          0.648000000000         0.920511515163
    8          0.251000000000        -0.206984225261
 D 8
    1        186.417609040000         0.001427264187
    2         55.274124345000         0.010009113789
    3         20.283219120000         0.035103641858
    4          8.088453697600         0.066898716082
    5          3.221403385300         0.070273901781
    6          1.195217010200        -1.559307990680
    7          0.648000000000         2.240357036072
    8          0.251000000000        -0.294101385350
 D 8
    1        186.417609040000         0.000644390131
    2         55.274124345000         0.004518977078
    3         20.283219120000         0.015848811017
    4          8.088453697600         0.030203849297
    5          3.221403385300         0.031727699173
    6          1.195217010200        -0.881477555893
    7          0.648000000000         1.771996484871
    8          0.251000000000        -1.600335629433
 F 1
    1          0.628000000000         1.000000000000
 end
  // -----------------------------------------------
  // The basis set
  // -----------------------------------------------
  BAS[ATNO] = new BFNGauss[NSH];
  // Basis function   1 L = s
  InitBFNGauss(BAS[ATNO][  0]);
  BAS[ATNO][  0].l  = 0;
  BAS[ATNO][  0].ng = 17;
  BAS[ATNO][  0].a[  0] =    600250.975749999983;     BAS[ATNO][  0].d[  0] =         0.000230217605;
  BAS[ATNO][  0].a[  1] =     89976.650781000004;     BAS[ATNO][  0].d[  1] =         0.001785279144;
  BAS[ATNO][  0].a[  2] =     20476.814224999998;     BAS[ATNO][  0].d[  2] =         0.009289495603;
  BAS[ATNO][  0].a[  3] =      5796.155407800000;     BAS[ATNO][  0].d[  3] =         0.037839131772;
  BAS[ATNO][  0].a[  4] =      1887.591319600000;     BAS[ATNO][  0].d[  4] =         0.123858986172;
  BAS[ATNO][  0].a[  5] =       679.114585190000;     BAS[ATNO][  0].d[  5] =         0.296700794682;
  BAS[ATNO][  0].a[  6] =       264.382445110000;     BAS[ATNO][  0].d[  6] =         0.434992206574;
  BAS[ATNO][  0].a[  7] =       104.883685740000;     BAS[ATNO][  0].d[  7] =         0.239743630159;
  BAS[ATNO][  0].a[  8] =       641.473707640000;     BAS[ATNO][  0].d[  8] =        -0.000046083814;
  BAS[ATNO][  0].a[  9] =       199.575248200000;     BAS[ATNO][  0].d[  9] =        -0.000216608420;
  BAS[ATNO][  0].a[ 10] =        33.545462954000;     BAS[ATNO][  0].d[ 10] =         0.000973250625;
  BAS[ATNO][  0].a[ 11] =        14.683955144000;     BAS[ATNO][  0].d[ 11] =         0.000964446273;
  BAS[ATNO][  0].a[ 12] =        22.603101860000;     BAS[ATNO][  0].d[ 12] =        -0.000703181609;
  BAS[ATNO][  0].a[ 13] =         4.065068299100;     BAS[ATNO][  0].d[ 13] =         0.001973233391;
  BAS[ATNO][  0].a[ 14] =         1.961102706000;     BAS[ATNO][  0].d[ 14] =        -0.001741788906;
  BAS[ATNO][  0].a[ 15] =         0.524651479800;     BAS[ATNO][  0].d[ 15] =         0.000649309382;
  BAS[ATNO][  0].a[ 16] =         0.193323995100;     BAS[ATNO][  0].d[ 16] =        -0.000240647282;

  // Basis function   2 L = s
  InitBFNGauss(BAS[ATNO][  1]);
  BAS[ATNO][  1].l  = 0;
  BAS[ATNO][  1].ng = 17;
  BAS[ATNO][  1].a[  0] =    600250.975749999983;     BAS[ATNO][  1].d[  0] =        -0.000078801606;
  BAS[ATNO][  1].a[  1] =     89976.650781000004;     BAS[ATNO][  1].d[  1] =        -0.000611086473;
  BAS[ATNO][  1].a[  2] =     20476.814224999998;     BAS[ATNO][  1].d[  2] =        -0.003179718491;
  BAS[ATNO][  1].a[  3] =      5796.155407800000;     BAS[ATNO][  1].d[  3] =        -0.012952025829;
  BAS[ATNO][  1].a[  4] =      1887.591319600000;     BAS[ATNO][  1].d[  4] =        -0.042395919593;
  BAS[ATNO][  1].a[  5] =       679.114585190000;     BAS[ATNO][  1].d[  5] =        -0.101558259301;
  BAS[ATNO][  1].a[  6] =       264.382445110000;     BAS[ATNO][  1].d[  6] =        -0.148894280369;
  BAS[ATNO][  1].a[  7] =       104.883685740000;     BAS[ATNO][  1].d[  7] =        -0.082062286970;
  BAS[ATNO][  1].a[  8] =       641.473707640000;     BAS[ATNO][  1].d[  8] =        -0.027458350292;
  BAS[ATNO][  1].a[  9] =       199.575248200000;     BAS[ATNO][  1].d[  9] =        -0.129062881252;
  BAS[ATNO][  1].a[ 10] =        33.545462954000;     BAS[ATNO][  1].d[ 10] =         0.579896800927;
  BAS[ATNO][  1].a[ 11] =        14.683955144000;     BAS[ATNO][  1].d[ 11] =         0.574650859701;
  BAS[ATNO][  1].a[ 12] =        22.603101860000;     BAS[ATNO][  1].d[ 12] =         0.066993800738;
  BAS[ATNO][  1].a[ 13] =         4.065068299100;     BAS[ATNO][  1].d[ 13] =        -0.187994684351;
  BAS[ATNO][  1].a[ 14] =         1.961102706000;     BAS[ATNO][  1].d[ 14] =         0.131929842735;
  BAS[ATNO][  1].a[ 15] =         0.524651479800;     BAS[ATNO][  1].d[ 15] =        -0.042539955146;
  BAS[ATNO][  1].a[ 16] =         0.193323995100;     BAS[ATNO][  1].d[ 16] =         0.015198950357;

  // Basis function   3 L = s
  InitBFNGauss(BAS[ATNO][  2]);
  BAS[ATNO][  2].l  = 0;
  BAS[ATNO][  2].ng = 17;
  BAS[ATNO][  2].a[  0] =    600250.975749999983;     BAS[ATNO][  2].d[  0] =         0.000039285993;
  BAS[ATNO][  2].a[  1] =     89976.650781000004;     BAS[ATNO][  2].d[  1] =         0.000304652913;
  BAS[ATNO][  2].a[  2] =     20476.814224999998;     BAS[ATNO][  2].d[  2] =         0.001585226549;
  BAS[ATNO][  2].a[  3] =      5796.155407800000;     BAS[ATNO][  2].d[  3] =         0.006457142437;
  BAS[ATNO][  2].a[  4] =      1887.591319600000;     BAS[ATNO][  2].d[  4] =         0.021136190983;
  BAS[ATNO][  2].a[  5] =       679.114585190000;     BAS[ATNO][  2].d[  5] =         0.050631164157;
  BAS[ATNO][  2].a[  6] =       264.382445110000;     BAS[ATNO][  2].d[  6] =         0.074230208388;
  BAS[ATNO][  2].a[  7] =       104.883685740000;     BAS[ATNO][  2].d[  7] =         0.040911582684;
  BAS[ATNO][  2].a[  8] =       641.473707640000;     BAS[ATNO][  2].d[  8] =         0.007558859231;
  BAS[ATNO][  2].a[  9] =       199.575248200000;     BAS[ATNO][  2].d[  9] =         0.035529015433;
  BAS[ATNO][  2].a[ 10] =        33.545462954000;     BAS[ATNO][  2].d[ 10] =        -0.159636622009;
  BAS[ATNO][  2].a[ 11] =        14.683955144000;     BAS[ATNO][  2].d[ 11] =        -0.158192495511;
  BAS[ATNO][  2].a[ 12] =        22.603101860000;     BAS[ATNO][  2].d[ 12] =        -0.692108272439;
  BAS[ATNO][  2].a[ 13] =         4.065068299100;     BAS[ATNO][  2].d[ 13] =         1.942159942862;
  BAS[ATNO][  2].a[ 14] =         1.961102706000;     BAS[ATNO][  2].d[ 14] =        -0.725764027641;
  BAS[ATNO][  2].a[ 15] =         0.524651479800;     BAS[ATNO][  2].d[ 15] =         0.196310071319;
  BAS[ATNO][  2].a[ 16] =         0.193323995100;     BAS[ATNO][  2].d[ 16] =        -0.066915761747;

  // Basis function   4 L = s
  InitBFNGauss(BAS[ATNO][  3]);
  BAS[ATNO][  3].l  = 0;
  BAS[ATNO][  3].ng = 17;
  BAS[ATNO][  3].a[  0] =    600250.975749999983;     BAS[ATNO][  3].d[  0] =        -0.000032148843;
  BAS[ATNO][  3].a[  1] =     89976.650781000004;     BAS[ATNO][  3].d[  1] =        -0.000249306123;
  BAS[ATNO][  3].a[  2] =     20476.814224999998;     BAS[ATNO][  3].d[  2] =        -0.001297235864;
  BAS[ATNO][  3].a[  3] =      5796.155407800000;     BAS[ATNO][  3].d[  3] =        -0.005284062869;
  BAS[ATNO][  3].a[  4] =      1887.591319600000;     BAS[ATNO][  3].d[  4] =        -0.017296344794;
  BAS[ATNO][  3].a[  5] =       679.114585190000;     BAS[ATNO][  3].d[  5] =        -0.041432918224;
  BAS[ATNO][  3].a[  6] =       264.382445110000;     BAS[ATNO][  3].d[  6] =        -0.060744685711;
  BAS[ATNO][  3].a[  7] =       104.883685740000;     BAS[ATNO][  3].d[  7] =        -0.033479108925;
  BAS[ATNO][  3].a[  8] =       641.473707640000;     BAS[ATNO][  3].d[  8] =         0.010509791400;
  BAS[ATNO][  3].a[  9] =       199.575248200000;     BAS[ATNO][  3].d[  9] =         0.049399324614;
  BAS[ATNO][  3].a[ 10] =        33.545462954000;     BAS[ATNO][  3].d[ 10] =        -0.221957777740;
  BAS[ATNO][  3].a[ 11] =        14.683955144000;     BAS[ATNO][  3].d[ 11] =        -0.219949873136;
  BAS[ATNO][  3].a[ 12] =        22.603101860000;     BAS[ATNO][  3].d[ 12] =         0.994599612082;
  BAS[ATNO][  3].a[ 13] =         4.065068299100;     BAS[ATNO][  3].d[ 13] =        -2.790996152904;
  BAS[ATNO][  3].a[ 14] =         1.961102706000;     BAS[ATNO][  3].d[ 14] =         2.988082995898;
  BAS[ATNO][  3].a[ 15] =         0.524651479800;     BAS[ATNO][  3].d[ 15] =        -0.269778121701;
  BAS[ATNO][  3].a[ 16] =         0.193323995100;     BAS[ATNO][  3].d[ 16] =         0.087871233901;

  // Basis function   5 L = s
  InitBFNGauss(BAS[ATNO][  4]);
  BAS[ATNO][  4].l  = 0;
  BAS[ATNO][  4].ng = 17;
  BAS[ATNO][  4].a[  0] =    600250.975749999983;     BAS[ATNO][  4].d[  0] =        -0.000021060450;
  BAS[ATNO][  4].a[  1] =     89976.650781000004;     BAS[ATNO][  4].d[  1] =        -0.000163318452;
  BAS[ATNO][  4].a[  2] =     20476.814224999998;     BAS[ATNO][  4].d[  2] =        -0.000849808864;
  BAS[ATNO][  4].a[  3] =      5796.155407800000;     BAS[ATNO][  4].d[  3] =        -0.003461547425;
  BAS[ATNO][  4].a[  4] =      1887.591319600000;     BAS[ATNO][  4].d[  4] =        -0.011330697469;
  BAS[ATNO][  4].a[  5] =       679.114585190000;     BAS[ATNO][  4].d[  5] =        -0.027142374142;
  BAS[ATNO][  4].a[  6] =       264.382445110000;     BAS[ATNO][  4].d[  6] =        -0.039793358937;
  BAS[ATNO][  4].a[  7] =       104.883685740000;     BAS[ATNO][  4].d[  7] =        -0.021931897132;
  BAS[ATNO][  4].a[  8] =       641.473707640000;     BAS[ATNO][  4].d[  8] =         0.011085203298;
  BAS[ATNO][  4].a[  9] =       199.575248200000;     BAS[ATNO][  4].d[  9] =         0.052103941487;
  BAS[ATNO][  4].a[ 10] =        33.545462954000;     BAS[ATNO][  4].d[ 10] =        -0.234109983371;
  BAS[ATNO][  4].a[ 11] =        14.683955144000;     BAS[ATNO][  4].d[ 11] =        -0.231992145833;
  BAS[ATNO][  4].a[ 12] =        22.603101860000;     BAS[ATNO][  4].d[ 12] =         0.730307406076;
  BAS[ATNO][  4].a[ 13] =         4.065068299100;     BAS[ATNO][  4].d[ 13] =        -2.049352459057;
  BAS[ATNO][  4].a[ 14] =         1.961102706000;     BAS[ATNO][  4].d[ 14] =         3.332874602068;
  BAS[ATNO][  4].a[ 15] =         0.524651479800;     BAS[ATNO][  4].d[ 15] =        -2.393304047611;
  BAS[ATNO][  4].a[ 16] =         0.193323995100;     BAS[ATNO][  4].d[ 16] =         0.442947443985;

  // Basis function   6 L = s
  InitBFNGauss(BAS[ATNO][  5]);
  BAS[ATNO][  5].l  = 0;
  BAS[ATNO][  5].ng = 17;
  BAS[ATNO][  5].a[  0] =    600250.975749999983;     BAS[ATNO][  5].d[  0] =         0.000009106425;
  BAS[ATNO][  5].a[  1] =     89976.650781000004;     BAS[ATNO][  5].d[  1] =         0.000070618019;
  BAS[ATNO][  5].a[  2] =     20476.814224999998;     BAS[ATNO][  5].d[  2] =         0.000367452775;
  BAS[ATNO][  5].a[  3] =      5796.155407800000;     BAS[ATNO][  5].d[  3] =         0.001496754459;
  BAS[ATNO][  5].a[  4] =      1887.591319600000;     BAS[ATNO][  5].d[  4] =         0.004899332548;
  BAS[ATNO][  5].a[  5] =       679.114585190000;     BAS[ATNO][  5].d[  5] =         0.011736216363;
  BAS[ATNO][  5].a[  6] =       264.382445110000;     BAS[ATNO][  5].d[  6] =         0.017206434038;
  BAS[ATNO][  5].a[  7] =       104.883685740000;     BAS[ATNO][  5].d[  7] =         0.009483234173;
  BAS[ATNO][  5].a[  8] =       641.473707640000;     BAS[ATNO][  5].d[  8] =        -0.005306181007;
  BAS[ATNO][  5].a[  9] =       199.575248200000;     BAS[ATNO][  5].d[  9] =        -0.024940719379;
  BAS[ATNO][  5].a[ 10] =        33.545462954000;     BAS[ATNO][  5].d[ 10] =         0.112061990562;
  BAS[ATNO][  5].a[ 11] =        14.683955144000;     BAS[ATNO][  5].d[ 11] =         0.111048240158;
  BAS[ATNO][  5].a[ 12] =        22.603101860000;     BAS[ATNO][  5].d[ 12] =        -0.323790247455;
  BAS[ATNO][  5].a[ 13] =         4.065068299100;     BAS[ATNO][  5].d[ 13] =         0.908604149869;
  BAS[ATNO][  5].a[ 14] =         1.961102706000;     BAS[ATNO][  5].d[ 14] =        -1.741024044221;
  BAS[ATNO][  5].a[ 15] =         0.524651479800;     BAS[ATNO][  5].d[ 15] =         2.593604630597;
  BAS[ATNO][  5].a[ 16] =         0.193323995100;     BAS[ATNO][  5].d[ 16] =        -2.220642089125;

  // Basis function   7 L = p
  InitBFNGauss(BAS[ATNO][  6]);
  BAS[ATNO][  6].l  = 1;
  BAS[ATNO][  6].ng = 13;
  BAS[ATNO][  6].a[  0] =      3232.958961400000;     BAS[ATNO][  6].d[  0] =         0.002736311031;
  BAS[ATNO][  6].a[  1] =       765.964426940000;     BAS[ATNO][  6].d[  1] =         0.022407852262;
  BAS[ATNO][  6].a[  2] =       246.339408100000;     BAS[ATNO][  6].d[  2] =         0.106631813426;
  BAS[ATNO][  6].a[  3] =        92.365283041000;     BAS[ATNO][  6].d[  3] =         0.310074257468;
  BAS[ATNO][  6].a[  4] =        37.199509551000;     BAS[ATNO][  6].d[  4] =         0.496078313556;
  BAS[ATNO][  6].a[  5] =        15.172166534000;     BAS[ATNO][  6].d[  5] =         0.273977721522;
  BAS[ATNO][  6].a[  6] =        60.931321698000;     BAS[ATNO][  6].d[  6] =         0.001740241671;
  BAS[ATNO][  6].a[  7] =         9.479260064600;     BAS[ATNO][  6].d[  7] =        -0.025772473719;
  BAS[ATNO][  6].a[  8] =         4.256468632600;     BAS[ATNO][  6].d[  8] =        -0.045617998953;
  BAS[ATNO][  6].a[  9] =         1.972931376200;     BAS[ATNO][  6].d[  9] =        -0.025792156366;
  BAS[ATNO][  6].a[ 10] =         0.763371087200;     BAS[ATNO][  6].d[ 10] =         0.053955404435;
  BAS[ATNO][  6].a[ 11] =         0.309436255300;     BAS[ATNO][  6].d[ 11] =        -0.036111372978;
  BAS[ATNO][  6].a[ 12] =         0.115697044600;     BAS[ATNO][  6].d[ 12] =         0.012071157235;

  // Basis function   8 L = p
  InitBFNGauss(BAS[ATNO][  7]);
  BAS[ATNO][  7].l  = 1;
  BAS[ATNO][  7].ng = 13;
  BAS[ATNO][  7].a[  0] =      3232.958961400000;     BAS[ATNO][  7].d[  0] =        -0.001025927830;
  BAS[ATNO][  7].a[  1] =       765.964426940000;     BAS[ATNO][  7].d[  1] =        -0.008401398448;
  BAS[ATNO][  7].a[  2] =       246.339408100000;     BAS[ATNO][  7].d[  2] =        -0.039979572399;
  BAS[ATNO][  7].a[  3] =        92.365283041000;     BAS[ATNO][  7].d[  3] =        -0.116256451308;
  BAS[ATNO][  7].a[  4] =        37.199509551000;     BAS[ATNO][  7].d[  4] =        -0.185995137990;
  BAS[ATNO][  7].a[  5] =        15.172166534000;     BAS[ATNO][  7].d[  5] =        -0.102722741003;
  BAS[ATNO][  7].a[  6] =        60.931321698000;     BAS[ATNO][  7].d[  6] =        -0.024214695633;
  BAS[ATNO][  7].a[  7] =         9.479260064600;     BAS[ATNO][  7].d[  7] =         0.358612609486;
  BAS[ATNO][  7].a[  8] =         4.256468632600;     BAS[ATNO][  7].d[  8] =         0.634754343808;
  BAS[ATNO][  7].a[  9] =         1.972931376200;     BAS[ATNO][  7].d[  9] =         0.358886484841;
  BAS[ATNO][  7].a[ 10] =         0.763371087200;     BAS[ATNO][  7].d[ 10] =        -0.434925149700;
  BAS[ATNO][  7].a[ 11] =         0.309436255300;     BAS[ATNO][  7].d[ 11] =         0.259944414756;
  BAS[ATNO][  7].a[ 12] =         0.115697044600;     BAS[ATNO][  7].d[ 12] =        -0.082813212144;

  // Basis function   9 L = p
  InitBFNGauss(BAS[ATNO][  8]);
  BAS[ATNO][  8].l  = 1;
  BAS[ATNO][  8].ng = 13;
  BAS[ATNO][  8].a[  0] =      3232.958961400000;     BAS[ATNO][  8].d[  0] =         0.000283106847;
  BAS[ATNO][  8].a[  1] =       765.964426940000;     BAS[ATNO][  8].d[  1] =         0.002318382788;
  BAS[ATNO][  8].a[  2] =       246.339408100000;     BAS[ATNO][  8].d[  2] =         0.011032443361;
  BAS[ATNO][  8].a[  3] =        92.365283041000;     BAS[ATNO][  8].d[  3] =         0.032081201409;
  BAS[ATNO][  8].a[  4] =        37.199509551000;     BAS[ATNO][  8].d[  4] =         0.051325732171;
  BAS[ATNO][  8].a[  5] =        15.172166534000;     BAS[ATNO][  8].d[  5] =         0.028346546849;
  BAS[ATNO][  8].a[  6] =        60.931321698000;     BAS[ATNO][  8].d[  6] =         0.010216430435;
  BAS[ATNO][  8].a[  7] =         9.479260064600;     BAS[ATNO][  8].d[  7] =        -0.151302367506;
  BAS[ATNO][  8].a[  8] =         4.256468632600;     BAS[ATNO][  8].d[  8] =        -0.267809420145;
  BAS[ATNO][  8].a[  9] =         1.972931376200;     BAS[ATNO][  8].d[  9] =        -0.151417918350;
  BAS[ATNO][  8].a[ 10] =         0.763371087200;     BAS[ATNO][  8].d[ 10] =         1.674990236709;
  BAS[ATNO][  8].a[ 11] =         0.309436255300;     BAS[ATNO][  8].d[ 11] =        -0.768732771568;
  BAS[ATNO][  8].a[ 12] =         0.115697044600;     BAS[ATNO][  8].d[ 12] =         0.221979518947;

  // Basis function  10 L = p
  InitBFNGauss(BAS[ATNO][  9]);
  BAS[ATNO][  9].l  = 1;
  BAS[ATNO][  9].ng = 13;
  BAS[ATNO][  9].a[  0] =      3232.958961400000;     BAS[ATNO][  9].d[  0] =        -0.000102419634;
  BAS[ATNO][  9].a[  1] =       765.964426940000;     BAS[ATNO][  9].d[  1] =        -0.000838721915;
  BAS[ATNO][  9].a[  2] =       246.339408100000;     BAS[ATNO][  9].d[  2] =        -0.003991209764;
  BAS[ATNO][  9].a[  3] =        92.365283041000;     BAS[ATNO][  9].d[  3] =        -0.011606024170;
  BAS[ATNO][  9].a[  4] =        37.199509551000;     BAS[ATNO][  9].d[  4] =        -0.018568122825;
  BAS[ATNO][  9].a[  5] =        15.172166534000;     BAS[ATNO][  9].d[  5] =        -0.010254937266;
  BAS[ATNO][  9].a[  6] =        60.931321698000;     BAS[ATNO][  9].d[  6] =        -0.003992243114;
  BAS[ATNO][  9].a[  7] =         9.479260064600;     BAS[ATNO][  9].d[  7] =         0.059123961030;
  BAS[ATNO][  9].a[  8] =         4.256468632600;     BAS[ATNO][  9].d[  8] =         0.104651063834;
  BAS[ATNO][  9].a[  9] =         1.972931376200;     BAS[ATNO][  9].d[  9] =         0.059169114478;
  BAS[ATNO][  9].a[ 10] =         0.763371087200;     BAS[ATNO][  9].d[ 10] =        -1.295368728733;
  BAS[ATNO][  9].a[ 11] =         0.309436255300;     BAS[ATNO][  9].d[ 11] =         2.082909547009;
  BAS[ATNO][  9].a[ 12] =         0.115697044600;     BAS[ATNO][  9].d[ 12] =        -0.442421657215;

  // Basis function  11 L = p
  InitBFNGauss(BAS[ATNO][ 10]);
  BAS[ATNO][ 10].l  = 1;
  BAS[ATNO][ 10].ng = 13;
  BAS[ATNO][ 10].a[  0] =      3232.958961400000;     BAS[ATNO][ 10].d[  0] =         0.000040376381;
  BAS[ATNO][ 10].a[  1] =       765.964426940000;     BAS[ATNO][ 10].d[  1] =         0.000330645152;
  BAS[ATNO][ 10].a[  2] =       246.339408100000;     BAS[ATNO][ 10].d[  2] =         0.001573434695;
  BAS[ATNO][ 10].a[  3] =        92.365283041000;     BAS[ATNO][ 10].d[  3] =         0.004575384952;
  BAS[ATNO][ 10].a[  4] =        37.199509551000;     BAS[ATNO][ 10].d[  4] =         0.007320018339;
  BAS[ATNO][ 10].a[  5] =        15.172166534000;     BAS[ATNO][ 10].d[  5] =         0.004042752709;
  BAS[ATNO][ 10].a[  6] =        60.931321698000;     BAS[ATNO][ 10].d[  6] =         0.001574101700;
  BAS[ATNO][ 10].a[  7] =         9.479260064600;     BAS[ATNO][ 10].d[  7] =        -0.023311989004;
  BAS[ATNO][ 10].a[  8] =         4.256468632600;     BAS[ATNO][ 10].d[  8] =        -0.041262872223;
  BAS[ATNO][ 10].a[  9] =         1.972931376200;     BAS[ATNO][ 10].d[  9] =        -0.023329792558;
  BAS[ATNO][ 10].a[ 10] =         0.763371087200;     BAS[ATNO][ 10].d[ 10] =         0.624385637072;
  BAS[ATNO][ 10].a[ 11] =         0.309436255300;     BAS[ATNO][ 10].d[ 11] =        -1.607219674517;
  BAS[ATNO][ 10].a[ 12] =         0.115697044600;     BAS[ATNO][ 10].d[ 12] =         1.699671012018;

  // Basis function  12 L = d
  InitBFNGauss(BAS[ATNO][ 11]);
  BAS[ATNO][ 11].l  = 2;
  BAS[ATNO][ 11].ng = 8;
  BAS[ATNO][ 11].a[  0] =       186.417609040000;     BAS[ATNO][ 11].d[  0] =        -0.010615991980;
  BAS[ATNO][ 11].a[  1] =        55.274124345000;     BAS[ATNO][ 11].d[  1] =        -0.074447795071;
  BAS[ATNO][ 11].a[  2] =        20.283219120000;     BAS[ATNO][ 11].d[  2] =        -0.261100911656;
  BAS[ATNO][ 11].a[  3] =         8.088453697600;     BAS[ATNO][ 11].d[  3] =        -0.497592695030;
  BAS[ATNO][ 11].a[  4] =         3.221403385300;     BAS[ATNO][ 11].d[  4] =        -0.522697328521;
  BAS[ATNO][ 11].a[  5] =         1.195217010200;     BAS[ATNO][ 11].d[  5] =         0.536233749485;
  BAS[ATNO][ 11].a[  6] =         0.648000000000;     BAS[ATNO][ 11].d[  6] =        -0.372650182750;
  BAS[ATNO][ 11].a[  7] =         0.251000000000;     BAS[ATNO][ 11].d[  7] =         0.094206357876;

  // Basis function  13 L = d
  InitBFNGauss(BAS[ATNO][ 12]);
  BAS[ATNO][ 12].l  = 2;
  BAS[ATNO][ 12].ng = 8;
  BAS[ATNO][ 12].a[  0] =       186.417609040000;     BAS[ATNO][ 12].d[  0] =        -0.003158505650;
  BAS[ATNO][ 12].a[  1] =        55.274124345000;     BAS[ATNO][ 12].d[  1] =        -0.022149958460;
  BAS[ATNO][ 12].a[  2] =        20.283219120000;     BAS[ATNO][ 12].d[  2] =        -0.077683621678;
  BAS[ATNO][ 12].a[  3] =         8.088453697600;     BAS[ATNO][ 12].d[  3] =        -0.148045452716;
  BAS[ATNO][ 12].a[  4] =         3.221403385300;     BAS[ATNO][ 12].d[  4] =        -0.155514667734;
  BAS[ATNO][ 12].a[  5] =         1.195217010200;     BAS[ATNO][ 12].d[  5] =         1.773322063834;
  BAS[ATNO][ 12].a[  6] =         0.648000000000;     BAS[ATNO][ 12].d[  6] =        -0.920511515163;
  BAS[ATNO][ 12].a[  7] =         0.251000000000;     BAS[ATNO][ 12].d[  7] =         0.206984225261;

  // Basis function  14 L = d
  InitBFNGauss(BAS[ATNO][ 13]);
  BAS[ATNO][ 13].l  = 2;
  BAS[ATNO][ 13].ng = 8;
  BAS[ATNO][ 13].a[  0] =       186.417609040000;     BAS[ATNO][ 13].d[  0] =         0.001427264187;
  BAS[ATNO][ 13].a[  1] =        55.274124345000;     BAS[ATNO][ 13].d[  1] =         0.010009113789;
  BAS[ATNO][ 13].a[  2] =        20.283219120000;     BAS[ATNO][ 13].d[  2] =         0.035103641858;
  BAS[ATNO][ 13].a[  3] =         8.088453697600;     BAS[ATNO][ 13].d[  3] =         0.066898716082;
  BAS[ATNO][ 13].a[  4] =         3.221403385300;     BAS[ATNO][ 13].d[  4] =         0.070273901781;
  BAS[ATNO][ 13].a[  5] =         1.195217010200;     BAS[ATNO][ 13].d[  5] =        -1.559307990680;
  BAS[ATNO][ 13].a[  6] =         0.648000000000;     BAS[ATNO][ 13].d[  6] =         2.240357036072;
  BAS[ATNO][ 13].a[  7] =         0.251000000000;     BAS[ATNO][ 13].d[  7] =        -0.294101385350;

  // Basis function  15 L = d
  InitBFNGauss(BAS[ATNO][ 14]);
  BAS[ATNO][ 14].l  = 2;
  BAS[ATNO][ 14].ng = 8;
  BAS[ATNO][ 14].a[  0] =       186.417609040000;     BAS[ATNO][ 14].d[  0] =         0.000644390131;
  BAS[ATNO][ 14].a[  1] =        55.274124345000;     BAS[ATNO][ 14].d[  1] =         0.004518977078;
  BAS[ATNO][ 14].a[  2] =        20.283219120000;     BAS[ATNO][ 14].d[  2] =         0.015848811017;
  BAS[ATNO][ 14].a[  3] =         8.088453697600;     BAS[ATNO][ 14].d[  3] =         0.030203849297;
  BAS[ATNO][ 14].a[  4] =         3.221403385300;     BAS[ATNO][ 14].d[  4] =         0.031727699173;
  BAS[ATNO][ 14].a[  5] =         1.195217010200;     BAS[ATNO][ 14].d[  5] =        -0.881477555893;
  BAS[ATNO][ 14].a[  6] =         0.648000000000;     BAS[ATNO][ 14].d[  6] =         1.771996484871;
  BAS[ATNO][ 14].a[  7] =         0.251000000000;     BAS[ATNO][ 14].d[  7] =        -1.600335629433;

  // Basis function  16 L = f
  InitBFNGauss(BAS[ATNO][ 15]);
  BAS[ATNO][ 15].l  = 3;
  BAS[ATNO][ 15].ng = 1;
  BAS[ATNO][ 15].a[  0] =         0.628000000000;     BAS[ATNO][ 15].d[  0] =         1.000000000000;

-------
TIMINGS
-------

Total SCF time: 0 days 0 hours 0 min 1 sec 

Total time                  ....       1.505 sec
Sum of individual times     ....       1.336 sec  ( 88.8%)

Fock matrix formation       ....       0.611 sec  ( 40.6%)
  XC integration            ....       0.018 sec  (  3.0% of F)
    Basis function eval.    ....       0.003 sec  ( 18.0% of XC)
    Density eval.           ....       0.001 sec  (  7.0% of XC)
    XC-Functional eval.     ....       0.002 sec  (  8.8% of XC)
    XC-Potential eval.      ....       0.002 sec  (  9.5% of XC)
Diagonalization             ....       0.001 sec  (  0.0%)
Density matrix formation    ....       0.000 sec  (  0.0%)
Population analysis         ....       0.001 sec  (  0.0%)
Initial guess               ....       0.071 sec  (  4.7%)
Orbital Transformation      ....       0.000 sec  (  0.0%)
Orbital Orthonormalization  ....       0.000 sec  (  0.0%)
DIIS solution               ....       0.000 sec  (  0.0%)
SOSCF solution              ....       0.001 sec  (  0.0%)
Grid generation             ....       0.652 sec  ( 43.3%)

-------------------------   --------------------
FINAL SINGLE POINT ENERGY     -1271.383120352737
-------------------------   --------------------


                            ***************************************
                            *     ORCA property calculations      *
                            ***************************************

                                    ---------------------
                                    Active property flags
                                    ---------------------
   (+) Dipole Moment


------------------------------------------------------------------------------
                       ORCA ELECTRIC PROPERTIES CALCULATION
------------------------------------------------------------------------------

Dipole Moment Calculation                       ... on
Quadrupole Moment Calculation                   ... off
Polarizability Calculation                      ... off
GBWName                                         ... Kr_def2-tzvp_1096.287912_.gbw
Electron density file                           ... Kr_def2-tzvp_1096.287912_.scfp
The origin for moment calculation is the CENTER OF MASS  = ( 0.000000,  0.000000  0.000000)

-------------
DIPOLE MOMENT
-------------
                                X             Y             Z
Electronic contribution:      0.00000       0.00000       0.00000
Nuclear contribution   :      0.00000       0.00000       0.00000
                        -----------------------------------------
Total Dipole Moment    :      0.00000       0.00000       0.00000
                        -----------------------------------------
Magnitude (a.u.)       :      0.00000
Magnitude (Debye)      :      0.00000



--------------------
Rotational spectrum 
--------------------
 
Rotational constants in cm-1:     0.000000     0.000000     0.000000 
Rotational constants in MHz :     0.000000     0.000000     0.000000 

 Dipole components along the rotational axes: 
x,y,z [a.u.] :     0.000000     0.000000     0.000000 
x,y,z [Debye]:     0.000000     0.000000     0.000000 

 

Timings for individual modules:

Sum of individual times         ...        2.710 sec (=   0.045 min)
GTO integral calculation        ...        0.503 sec (=   0.008 min)  18.6 %
Relativistic integrals          ...        0.446 sec (=   0.007 min)  16.5 %
SCF iterations                  ...        1.761 sec (=   0.029 min)  65.0 %
                             ****ORCA TERMINATED NORMALLY****
TOTAL RUN TIME: 0 days 0 hours 0 minutes 3 seconds 29 msec
