
                                 *****************
                                 * O   R   C   A *
                                 *****************

           --- An Ab Initio, DFT and Semiempirical electronic structure package ---

                  #######################################################
                  #                        -***-                        #
                  #          Department of theory and spectroscopy      #
                  #               Directorship: Frank Neese             #
                  #        Max Planck Institute fuer Kohlenforschung    #
                  #                Kaiser Wilhelm Platz 1               #
                  #                 D-45470 Muelheim/Ruhr               #
                  #                      Germany                        #
                  #                                                     #
                  #                  All rights reserved                #
                  #                        -***-                        #
                  #######################################################


                         Program Version 4.2.1 -  RELEASE  -


 With contributions from (in alphabetic order):
   Daniel Aravena         : Magnetic Suceptibility
   Michael Atanasov       : Ab Initio Ligand Field Theory (pilot matlab implementation)
   Alexander A. Auer      : GIAO ZORA, VPT2
   Ute Becker             : Parallelization
   Giovanni Bistoni       : ED, misc. LED, open-shell LED, HFLD
   Martin Brehm           : Molecular dynamics
   Dmytro Bykov           : SCF Hessian
   Vijay G. Chilkuri      : MRCI spin determinant printing, contributions to CSF-ICE
   Dipayan Datta          : RHF DLPNO-CCSD density
   Achintya Kumar Dutta   : EOM-CC, STEOM-CC
   Dmitry Ganyushin       : Spin-Orbit,Spin-Spin,Magnetic field MRCI
   Miquel Garcia          : C-PCM Hessian, Gaussian charge scheme
   Yang Guo               : DLPNO-NEVPT2, CIM, IAO-localization
   Andreas Hansen         : Spin unrestricted coupled pair/coupled cluster methods
   Benjamin Helmich-Paris : CASSCF linear response (MC-RPA)
   Lee Huntington         : MR-EOM, pCC
   Robert Izsak           : Overlap fitted RIJCOSX, COSX-SCS-MP3, EOM
   Christian Kollmar      : KDIIS, OOCD, Brueckner-CCSD(T), CCSD density
   Simone Kossmann        : Meta GGA functionals, TD-DFT gradient, OOMP2, MP2 Hessian
   Martin Krupicka        : AUTO-CI
   Lucas Lang             : DCDCAS
   Dagmar Lenk            : GEPOL surface, SMD
   Dimitrios Liakos       : Extrapolation schemes; Compound Job, initial MDCI parallelization
   Dimitrios Manganas     : Further ROCIS development; embedding schemes
   Dimitrios Pantazis     : SARC Basis sets
   Taras Petrenko         : DFT Hessian,TD-DFT gradient, ASA, ECA, R-Raman, ABS, FL, XAS/XES, NRVS
   Peter Pinski           : DLPNO-MP2, DLPNO-MP2 Gradient
   Christoph Reimann      : Effective Core Potentials
   Marius Retegan         : Local ZFS, SOC
   Christoph Riplinger    : Optimizer, TS searches, QM/MM, DLPNO-CCSD(T), (RO)-DLPNO pert. Triples
   Tobias Risthaus        : Range-separated hybrids, TD-DFT gradient, RPA, STAB
   Michael Roemelt        : Original ROCIS implementation
   Masaaki Saitow         : Open-shell DLPNO-CCSD energy and density
   Barbara Sandhoefer     : DKH picture change effects
   Avijit Sen             : IP-ROCIS
   Kantharuban Sivalingam : CASSCF convergence, NEVPT2, FIC-MRCI
   Bernardo de Souza      : ESD, SOC TD-DFT
   Georgi Stoychev        : AutoAux, RI-MP2 NMR
   Willem Van den Heuvel  : Paramagnetic NMR
   Boris Wezisla          : Elementary symmetry handling
   Frank Wennmohs         : Technical directorship


 We gratefully acknowledge several colleagues who have allowed us to
 interface, adapt or use parts of their codes:
   Stefan Grimme, W. Hujo, H. Kruse,             : VdW corrections, initial TS optimization,
                  C. Bannwarth                     DFT functionals, gCP, sTDA/sTD-DF
   Ed Valeev, F. Pavosevic, A. Kumar             : LibInt (2-el integral package), F12 methods
   Garnet Chan, S. Sharma, J. Yang, R. Olivares  : DMRG
   Ulf Ekstrom                                   : XCFun DFT Library
   Mihaly Kallay                                 : mrcc  (arbitrary order and MRCC methods)
   Andreas Klamt, Michael Diedenhofen            : otool_cosmo (COSMO solvation model)
   Jiri Pittner, Ondrej Demel                    : Mk-CCSD
   Frank Weinhold                                : gennbo (NPA and NBO analysis)
   Christopher J. Cramer and Donald G. Truhlar   : smd solvation model
   Lars Goerigk                                  : TD-DFT with DH, B97 family of functionals
   V. Asgeirsson, H. Jonsson                     : NEB implementation
   FAccTs GmbH                                   : IRC, NEB, NEB-TS, Multilevel, MM, QM/MM, CI optimization
   S Lehtola, MJT Oliveira, MAL Marques          : LibXC Library


 Your calculation uses the libint2 library for the computation of 2-el integrals
 For citations please refer to: http://libint.valeyev.net

 Your ORCA version has been built with support for libXC version: 4.2.3
 For citations please refer to: https://tddft.org/programs/libxc/

 This ORCA versions uses:
   CBLAS   interface :  Fast vector & matrix operations
   LAPACKE interface :  Fast linear algebra routines
   SCALAPACK package :  Parallel linear algebra routines


----- Orbital basis set information -----
Your calculation utilizes the basis: pc-1
   H, C-F              : F. Jensen, J. Chem. Phys. 115, 9113 (2001).
                         F. Jensen, J. Chem. Phys. 116, 7372 (2002).
                         F. Jensen, J. Chem. Phys. 117, 9234 (2002).
   Si-Cl               : F. Jensen, T. Helgaker, J. Chem. Phys. 121, 3463 (2004).
   He-B, Ne-Mg, Al, Ar : F. Jensen, J. Phys. Chem. A 111, 11198 (2007).
   K, Ca, Ga-Kr        : F. Jensen, J. Chem. Phys. 136, 094110 (2012).
   Sc-Zn               : F. Jensen, J. Chem. Phys. 138, 014107 (2013).

================================================================================
                                        WARNINGS
                       Please study these warnings very carefully!
================================================================================


INFO   : the flag for use of LIBINT has been found!

================================================================================
                                       INPUT FILE
================================================================================
NAME = Kr_pc-1_4385.151648_.inp
|  1> ! LDA pc-1 nori grid5 finalgrid6 verytightscf
|  2> %Pal NProcs 18 End
|  3> 
|  4> % REL
|  5>   Method ZORA
|  6>   ModelPot 1, 0, 0, 0
|  7>   velit 4385.151648
|  8> END
|  9> 
| 10> *xyz 34 1
| 11> Kr 0.0 0.0 0.0
| 12> **                         ****END OF INPUT****
================================================================================

                       ****************************
                       * Single Point Calculation *
                       ****************************

---------------------------------
CARTESIAN COORDINATES (ANGSTROEM)
---------------------------------
  Kr     0.000000    0.000000    0.000000

----------------------------
CARTESIAN COORDINATES (A.U.)
----------------------------
  NO LB      ZA    FRAG     MASS         X           Y           Z
   0 Kr   36.0000    0    83.800    0.000000    0.000000    0.000000

--------------------------------
INTERNAL COORDINATES (ANGSTROEM)
--------------------------------
 Kr     0   0   0     0.000000000000     0.00000000     0.00000000

---------------------------
INTERNAL COORDINATES (A.U.)
---------------------------
 Kr     0   0   0     0.000000000000     0.00000000     0.00000000

---------------------
BASIS SET INFORMATION
---------------------
There are 1 groups of distinct atoms

 Group   1 Type Kr  : 45s28p7d contracted to 5s4p2d pattern {111111111/9991/61}

Atom   0Kr   basis set group =>   1


           ************************************************************
           *        Program running with 18 parallel MPI-processes    *
           *              working on a common directory               *
           ************************************************************
------------------------------------------------------------------------------
                           ORCA GTO INTEGRAL CALCULATION
------------------------------------------------------------------------------

                         BASIS SET STATISTICS AND STARTUP INFO

 # of primitive gaussian shells          ...   80
 # of primitive gaussian functions       ...  164
 # of contracted shells                  ...   11
 # of contracted basis functions         ...   27
 Highest angular momentum                ...    2
 Maximum contraction depth               ...   11
 Integral package used                   ... LIBINT
 Integral threshhold            Thresh   ...  1.000e-12
 Primitive cut-off              TCut     ...  1.000e-14


------------------------------ INTEGRAL EVALUATION ----------------------------


 * One electron integrals 
 Pre-screening matrix                    ... done
 Shell pair data                         ... done (   0.000 sec)



           ************************************************************
           *        Program running with 18 parallel MPI-processes    *
           *              working on a common directory               *
           ************************************************************
------------------------------------------------------------------------------
                          ORCA RELATIVISTIC HAMILTONIAN
------------------------------------------------------------------------------

Relativistic Method            ... ZORA(MP)
Treatment of potential         ... Van Wuellen
Nucleus model                  ... Point Nucleus
Speed of light used            ... 4385.15164800000002


            *************************************************
            *         ZERO ORDER REGULAR APPROXIMATION      *
            *                     ZORA(MP)                  *
            *            Programmed by FN according to      *
            *                   C. van Wuellen              *
            *       J. Chem. Phys. (1998) vol 109, 392-399  *
            *************************************************

Terms included in model potential: +V(e,N)
Basis function cutoff value   ... 1.000000e-12
Loading the fitted atomic densities  (DKH4)  ... done
Calculating the cutoffs                      ... done
Number of fit functions                      ... 27
Setting up the integration grid ... done


           ************************************************************
           *        Program running with 18 parallel MPI-processes    *
           *              working on a common directory               *
           ************************************************************
-------------------------------------------------------------------------------
                                 ORCA SCF
-------------------------------------------------------------------------------

------------
SCF SETTINGS
------------
Hamiltonian:
 Density Functional     Method          .... DFT(GTOs)
 Exchange Functional    Exchange        .... Slater
   X-Alpha parameter    XAlpha          ....  0.666667
 Correlation Functional Correlation     .... VWN-5
 Gradients option       PostSCFGGA      .... off
   Density functional embedding theory  .... OFF

Relativistic Settings:
 Scalar relativistic method             .... ZORA
 Speed of light used       Velit        ....       4385.15165
Orbital energies will be scaled


General Settings:
 Integral files         IntName         .... Kr_pc-1_4385.151648_
 Hartree-Fock type      HFTyp           .... RHF
 Total Charge           Charge          ....   34
 Multiplicity           Mult            ....    1
 Number of Electrons    NEL             ....    2
 Basis Dimension        Dim             ....   27
 Nuclear Repulsion      ENuc            ....      0.0000000000 Eh

Convergence Acceleration:
 DIIS                   CNVDIIS         .... on
   Start iteration      DIISMaxIt       ....    12
   Startup error        DIISStart       ....  0.200000
   # of expansion vecs  DIISMaxEq       ....     5
   Bias factor          DIISBfac        ....   1.050
   Max. coefficient     DIISMaxC        ....  10.000
 Newton-Raphson         CNVNR           .... off
 SOSCF                  CNVSOSCF        .... on
   Start iteration      SOSCFMaxIt      ....   150
   Startup grad/error   SOSCFStart      ....  0.003300
 Level Shifting         CNVShift        .... on
   Level shift para.    LevelShift      ....    0.2500
   Turn off err/grad.   ShiftErr        ....    0.0010
 Zerner damping         CNVZerner       .... off
 Static damping         CNVDamp         .... on
   Fraction old density DampFac         ....    0.7000
   Max. Damping (<1)    DampMax         ....    0.9800
   Min. Damping (>=0)   DampMin         ....    0.0000
   Turn off err/grad.   DampErr         ....    0.1000
 Fernandez-Rico         CNVRico         .... off

SCF Procedure:
 Maximum # iterations   MaxIter         ....   125
 SCF integral mode      SCFMode         .... Direct
   Integral package                     .... LIBINT
 Reset frequency        DirectResetFreq ....    20
 Integral Threshold     Thresh          ....  1.000e-12 Eh
 Primitive CutOff       TCut            ....  1.000e-14 Eh

Convergence Tolerance:
 Convergence Check Mode ConvCheckMode   .... Total+1el-Energy
 Convergence forced     ConvForced      .... 0
 Energy Change          TolE            ....  1.000e-09 Eh
 1-El. energy change                    ....  1.000e-06 Eh
 Orbital Gradient       TolG            ....  2.000e-06
 Orbital Rotation angle TolX            ....  2.000e-06
 DIIS Error             TolErr          ....  1.000e-08


Diagonalization of the overlap matrix:
Smallest eigenvalue                        ... 7.238e-02
Time for diagonalization                   ...    0.001 sec
Threshold for overlap eigenvalues          ... 1.000e-08
Number of eigenvalues below threshold      ... 0
Time for construction of square roots      ...    0.001 sec
Total time needed                          ...    0.002 sec

-------------------
DFT GRID GENERATION
-------------------

General Integration Accuracy     IntAcc      ...  5.010
Radial Grid Type                 RadialGrid  ... Gauss-Chebyshev
Angular Grid (max. acc.)         AngularGrid ... Lebedev-434
Angular grid pruning method      GridPruning ... 3 (G Style)
Weight generation scheme         WeightScheme... Becke
Basis function cutoff            BFCut       ...    1.0000e-12
Integration weight cutoff        WCut        ...    1.0000e-14
Grids for H and He will be reduced by one unit

# of grid points (after initial pruning)     ...  16106 (   0.0 sec)
# of grid points (after weights+screening)   ...  16106 (   0.0 sec)
Grid point division into batches done        ...    0.2 sec
Reduced shell lists constructed in    0.2 sec

Total number of grid points                  ...    16106
Total number of batches                      ...      252
Average number of points per batch           ...       63
Average number of grid points per atom       ...    16106
Average number of shells per batch           ...     0.00 ( 0.00%)
Average number of basis functions per batch  ...     0.00 ( 0.00%)
Average number of large shells per batch     ...     0.00 ( -nan%)
Average number of large basis fcns per batch ...     0.00 ( -nan%)
Maximum spatial batch extension              ...  17.34, 17.34, 17.34 au
Average spatial batch extension              ...   0.86,  0.87,  0.87 au

Time for grid setup =    0.243 sec

------------------------------
INITIAL GUESS: MODEL POTENTIAL
------------------------------
Loading ZORA relativistic densities                ... done
Calculating cut-offs                               ... done
Setting up the integral package                    ... done
Initializing the effective Hamiltonian             ... done
Starting the Coulomb interaction                   ... done (   0.0 sec)
Reading the grid                                   ... done
Mapping shells                                     ... done
Starting the XC term evaluation                    ... done (   0.0 sec)
  promolecular density results
     # of electrons  =     36.000000565
     EX              =    -91.042004939
     EC              =     -3.295965580
     EX+EC           =    -94.337970520
Transforming the Hamiltonian                       ... done (   0.0 sec)
Diagonalizing the Hamiltonian                      ... done (   0.0 sec)
Back transforming the eigenvectors                 ... done (   0.0 sec)
Now organizing SCF variables                       ... done
                      ------------------
                      INITIAL GUESS DONE (   0.3 sec)
                      ------------------
--------------
SCF ITERATIONS
--------------
ITER       Energy         Delta-E        Max-DP      RMS-DP      [F,P]     Damp
               ***  Starting incremental Fock matrix formation  ***
  0  -1270.6231322313   0.000000000000 0.00417192  0.00015857  6.1931257 0.7000
                      *** Initiating the SOSCF procedure ***
                      *** Re-Reading the Fockian *** 
                      *** Removing any level shift *** 
ITER      Energy       Delta-E        Grad      Rot      Max-DP    RMS-DP
  1  -1270.63705949  -0.0139272622  0.001830  0.001830  0.009726  0.000370
               *** Restarting incremental Fock matrix formation ***
  2  -1270.66943429  -0.0323747967  0.008144  0.000017  0.000036  0.000001
  3  -1270.66943460  -0.0000003114  0.000029  0.000000  0.000000  0.000000
                 **** Energy Check signals convergence ****
              ***Rediagonalizing the Fockian in SOSCF/NRSCF***

               *****************************************************
               *                     SUCCESS                       *
               *           SCF CONVERGED AFTER   4 CYCLES          *
               *****************************************************

Setting up the final grid:

General Integration Accuracy     IntAcc      ...  5.340
Radial Grid Type                 RadialGrid  ... Gauss-Chebyshev
Angular Grid (max. acc.)         AngularGrid ... Lebedev-590
Angular grid pruning method      GridPruning ... 3 (G Style)
Weight generation scheme         WeightScheme... Becke
Basis function cutoff            BFCut       ...    1.0000e-12
Integration weight cutoff        WCut        ...    1.0000e-14
Grids for H and He will be reduced by one unit

# of grid points (after initial pruning)     ...  24180 (   0.0 sec)
# of grid points (after weights+screening)   ...  24180 (   0.0 sec)
Grid point division into batches done        ...    0.4 sec
Reduced shell lists constructed in    0.4 sec

Total number of grid points                  ...    24180
Total number of batches                      ...      378
Average number of points per batch           ...       63
Average number of grid points per atom       ...    24180
Average number of shells per batch           ...     0.00 ( 0.00%)
Average number of basis functions per batch  ...     0.00 ( 0.00%)
Average number of large shells per batch     ...     0.00 ( -nan%)
Average number of large basis fcns per batch ...     0.00 ( -nan%)
Maximum spatial batch extension              ...  17.58, 17.58, 17.58 au
Average spatial batch extension              ...   0.77,  0.77,  0.77 au

Final grid set up in    0.4 sec
Final integration                            ... done (   0.0 sec)
Change in XC energy                          ...     0.000037875
Integrated number of electrons               ...     2.000001769
Previous integrated no of electrons          ...     2.000004643

----------------
TOTAL SCF ENERGY
----------------

Total Energy       :        -1270.66939673 Eh          -34576.67213 eV

Components:
Nuclear Repulsion  :            0.00000000 Eh               0.00000 eV
Electronic Energy  :        -1270.66939673 Eh          -34576.67213 eV
One Electron Energy:        -1295.72833605 Eh          -35258.56053 eV
Two Electron Energy:           25.05893932 Eh             681.88841 eV

Virial components:
Potential Energy   :        -2535.86097881 Eh          -69004.28534 eV
Kinetic Energy     :         1265.19158208 Eh           34427.61321 eV
Virial Ratio       :            2.00432963


DFT components:
N(Alpha)           :        1.000000884621 electrons
N(Beta)            :        1.000000884621 electrons
N(Total)           :        2.000001769242 electrons
E(X)               :      -19.035033010988 Eh       
E(C)               :       -0.277811802245 Eh       
E(XC)              :      -19.312844813233 Eh       
DFET-embed. en.    :        0.000000000000 Eh       

---------------
SCF CONVERGENCE
---------------

  Last Energy change         ...   -3.8654e-12  Tolerance :   1.0000e-09
  Last MAX-Density change    ...    0.0000e+00  Tolerance :   1.0000e-08
  Last RMS-Density change    ...    0.0000e+00  Tolerance :   1.0000e-09
  Last Orbital Gradient      ...    6.6791e-11  Tolerance :   2.0000e-06
  Last Orbital Rotation      ...    0.0000e+00  Tolerance :   2.0000e-06

================================================================================
                                        WARNING
Number of found core electrons (2) does not match given number of chemical core electrons (18)
================================================================================
             **** THE GBW FILE WAS UPDATED (Kr_pc-1_4385.151648_.gbw) ****
             **** DENSITY FILE WAS UPDATED (Kr_pc-1_4385.151648_.scfp) ****
             **** ENERGY FILE WAS UPDATED (Kr_pc-1_4385.151648_.en.tmp) ****
             **** THE GBW FILE WAS UPDATED (Kr_pc-1_4385.151648_.gbw) ****
             **** DENSITY FILE WAS UPDATED (Kr_pc-1_4385.151648_.scfp) ****
----------------
ORBITAL ENERGIES
----------------

  NO   OCC          E(Eh)            E(eV) 
   0   2.0000    -616.331173    -16771.2238 
   1   0.0000    -148.282000     -4034.9584 
   2   0.0000    -146.335572     -3981.9934 
   3   0.0000    -146.335572     -3981.9934 
   4   0.0000    -146.335572     -3981.9934 
   5   0.0000     -60.646275     -1650.2690 
   6   0.0000     -58.524972     -1592.5455 
   7   0.0000     -58.524972     -1592.5455 
   8   0.0000     -58.524972     -1592.5455 
   9   0.0000     -54.142588     -1473.2947 
  10   0.0000     -54.142588     -1473.2947 
  11   0.0000     -54.142588     -1473.2947 
  12   0.0000     -54.142588     -1473.2947 
  13   0.0000     -54.142588     -1473.2947 
  14   0.0000     -26.842438      -730.4199 
  15   0.0000     -24.263336      -660.2389 
  16   0.0000     -24.263336      -660.2389 
  17   0.0000     -24.263336      -660.2389 
  18   0.0000     -16.462463      -447.9664 
  19   0.0000     -16.462463      -447.9664 
  20   0.0000     -16.462463      -447.9664 
  21   0.0000     -16.462463      -447.9664 
  22   0.0000     -16.462463      -447.9664 
  23   0.0000     -13.508231      -367.5776 
  24   0.0000     -11.603062      -315.7354 
  25   0.0000     -11.603062      -315.7354 
  26   0.0000     -11.603062      -315.7354 

                    ********************************
                    * MULLIKEN POPULATION ANALYSIS *
                    ********************************

-----------------------
MULLIKEN ATOMIC CHARGES
-----------------------
   0 Kr:   34.000000
Sum of atomic charges:   34.0000000

--------------------------------
MULLIKEN REDUCED ORBITAL CHARGES
--------------------------------
  0 Krs       :     2.000000  s :     2.000000
      pz      :     0.000000  p :     0.000000
      px      :     0.000000
      py      :     0.000000
      dz2     :     0.000000  d :     0.000000
      dxz     :     0.000000
      dyz     :     0.000000
      dx2y2   :     0.000000
      dxy     :     0.000000


                     *******************************
                     * LOEWDIN POPULATION ANALYSIS *
                     *******************************

----------------------
LOEWDIN ATOMIC CHARGES
----------------------
   0 Kr:   34.000000

-------------------------------
LOEWDIN REDUCED ORBITAL CHARGES
-------------------------------
  0 Krs       :     2.000000  s :     2.000000
      pz      :     0.000000  p :     0.000000
      px      :     0.000000
      py      :     0.000000
      dz2     :     0.000000  d :     0.000000
      dxz     :     0.000000
      dyz     :     0.000000
      dx2y2   :     0.000000
      dxy     :     0.000000


                      *****************************
                      * MAYER POPULATION ANALYSIS *
                      *****************************

  NA   - Mulliken gross atomic population
  ZA   - Total nuclear charge
  QA   - Mulliken gross atomic charge
  VA   - Mayer's total valence
  BVA  - Mayer's bonded valence
  FA   - Mayer's free valence

  ATOM       NA         ZA         QA         VA         BVA        FA
  0 Kr     2.0000    36.0000    34.0000     0.0000     0.0000     0.0000

  Mayer bond orders larger than 0.100000


--------------------------
ATOM BASIS FOR ELEMENT Kr
--------------------------
 NewGTO Kr
 S 45
    1     147050.000000000000         0.001335029195
    2      22074.000000000000         0.010262643106
    3       5023.600000000000         0.051350682864
    4       1419.800000000000         0.184560675975
    5        459.470000000000         0.422980643060
    6        160.840000000000         0.425765147122
    7         42.985000000000         0.069713933660
    8         18.685000000000        -0.023368545865
    9          6.044300000000         0.009500523493
   10          2.543200000000        -0.004454354969
   11          0.546630000000         0.001376924486
   12     147050.000000000000         0.000002194974
   13      22074.000000000000         0.000016869083
   14       5023.600000000000         0.000087112223
   15       1419.800000000000         0.000332514850
   16        459.470000000000         0.000952976753
   17        160.840000000000         0.001397888290
   18         42.985000000000        -0.001657247574
   19         18.685000000000        -0.003832140716
   20          6.044300000000        -0.000677660436
   21          2.543200000000         0.000122206967
   22          0.546630000000        -0.000029632411
   23     147050.000000000000         0.000000098004
   24      22074.000000000000         0.000000753625
   25       5023.600000000000         0.000003904170
   26       1419.800000000000         0.000015038767
   27        459.470000000000         0.000044308520
   28        160.840000000000         0.000069665092
   29         42.985000000000        -0.000113330320
   30         18.685000000000        -0.000366141694
   31          6.044300000000         0.000173049542
   32          2.543200000000         0.000523852826
   33          0.546630000000         0.000048155695
   34     147050.000000000000         0.000000142619
   35      22074.000000000000         0.000001096420
   36       5023.600000000000         0.000005685859
   37       1419.800000000000         0.000021915663
   38        459.470000000000         0.000064903931
   39        160.840000000000         0.000102952929
   40         42.985000000000        -0.000174609595
   41         18.685000000000        -0.000607873421
   42          6.044300000000         0.000379375671
   43          2.543200000000         0.001591875088
   44          0.546630000000        -0.001425715166
   45          0.215330000000         0.000040224355
 S 45
    1     147050.000000000000        -0.000008533757
    2      22074.000000000000        -0.000065600736
    3       5023.600000000000        -0.000328243179
    4       1419.800000000000        -0.001179746397
    5        459.470000000000        -0.002703771467
    6        160.840000000000        -0.002721570538
    7         42.985000000000        -0.000445624517
    8         18.685000000000         0.000149376121
    9          6.044300000000        -0.000060729125
   10          2.543200000000         0.000028473071
   11          0.546630000000        -0.000008801559
   12     147050.000000000000         0.000422417813
   13      22074.000000000000         0.003246417845
   14       5023.600000000000         0.016764554850
   15       1419.800000000000         0.063991748386
   16        459.470000000000         0.183398271160
   17        160.840000000000         0.269020513728
   18         42.985000000000        -0.318933634977
   19         18.685000000000        -0.737487016087
   20          6.044300000000        -0.130414253977
   21          2.543200000000         0.023518460943
   22          0.546630000000        -0.005702692101
   23     147050.000000000000         0.000006385163
   24      22074.000000000000         0.000049099995
   25       5023.600000000000         0.000254363519
   26       1419.800000000000         0.000979801941
   27        459.470000000000         0.002886777474
   28        160.840000000000         0.004538802455
   29         42.985000000000        -0.007383668379
   30         18.685000000000        -0.023854771086
   31          6.044300000000         0.011274480042
   32          2.543200000000         0.034129926869
   33          0.546630000000         0.003137427657
   34     147050.000000000000         0.000005430652
   35      22074.000000000000         0.000041749441
   36       5023.600000000000         0.000216505972
   37       1419.800000000000         0.000834503897
   38        459.470000000000         0.002471409791
   39        160.840000000000         0.003920238320
   40         42.985000000000        -0.006648778503
   41         18.685000000000        -0.023146584486
   42          6.044300000000         0.014445854540
   43          2.543200000000         0.060615368162
   44          0.546630000000        -0.054288336033
   45          0.215330000000         0.024529583747
 S 45
    1     147050.000000000000        -0.000014728402
    2      22074.000000000000        -0.000113220244
    3       5023.600000000000        -0.000566514570
    4       1419.800000000000        -0.002036123109
    5        459.470000000000        -0.004666436431
    6        160.840000000000        -0.004697155830
    7         42.985000000000        -0.000769102901
    8         18.685000000000         0.000257808095
    9          6.044300000000        -0.000104812335
   10          2.543200000000         0.000049141644
   11          0.546630000000        -0.000015190602
   12     147050.000000000000        -0.000003818393
   13      22074.000000000000        -0.000029345591
   14       5023.600000000000        -0.000151541113
   15       1419.800000000000        -0.000578445466
   16        459.470000000000        -0.001657805908
   17        160.840000000000        -0.002431777541
   18         42.985000000000         0.002882961005
   19         18.685000000000         0.006666422341
   20          6.044300000000         0.001178863461
   21          2.543200000000        -0.000212592208
   22          0.546630000000         0.000051548777
   23     147050.000000000000         0.000121412911
   24      22074.000000000000         0.000933628970
   25       5023.600000000000         0.004836683760
   26       1419.800000000000         0.018630785394
   27        459.470000000000         0.054891636136
   28        160.840000000000         0.086304640741
   29         42.985000000000        -0.140399335102
   30         18.685000000000        -0.453594856597
   31          6.044300000000         0.214382529156
   32          2.543200000000         0.648975386439
   33          0.546630000000         0.059657711374
   34     147050.000000000000         0.000042443799
   35      22074.000000000000         0.000326296892
   36       5023.600000000000         0.001692123871
   37       1419.800000000000         0.006522147869
   38        459.470000000000         0.019315548036
   39        160.840000000000         0.030639010931
   40         42.985000000000        -0.051964187015
   41         18.685000000000        -0.180904423945
   42          6.044300000000         0.112903007161
   43          2.543200000000         0.473745414407
   44          0.546630000000        -0.424295868051
   45          0.215330000000         0.149643307530
 S 45
    1     147050.000000000000         0.000054181971
    2      22074.000000000000         0.000416507915
    3       5023.600000000000         0.002084060183
    4       1419.800000000000         0.007490368864
    5        459.470000000000         0.017166609422
    6        160.840000000000         0.017279618124
    7         42.985000000000         0.002829330112
    8         18.685000000000        -0.000948409120
    9          6.044300000000         0.000385577399
   10          2.543200000000        -0.000180779365
   11          0.546630000000         0.000055882285
   12     147050.000000000000        -0.000109557070
   13      22074.000000000000        -0.000841981602
   14       5023.600000000000        -0.004348006765
   15       1419.800000000000        -0.016596715952
   16        459.470000000000        -0.047565648530
   17        160.840000000000        -0.069772387288
   18         42.985000000000         0.082717710967
   19         18.685000000000         0.191272512988
   20          6.044300000000         0.033823866107
   21          2.543200000000        -0.006099680439
   22          0.546630000000         0.001479033834
   23     147050.000000000000         0.000213314865
   24      22074.000000000000         0.001640327503
   25       5023.600000000000         0.008497749796
   26       1419.800000000000         0.032733120590
   27        459.470000000000         0.096441159460
   28        160.840000000000         0.151631836939
   29         42.985000000000        -0.246672819721
   30         18.685000000000        -0.796937693517
   31          6.044300000000         0.376656648176
   32          2.543200000000         1.140209021543
   33          0.546630000000         0.104814854514
   34     147050.000000000000        -0.000182893377
   35      22074.000000000000        -0.001406036724
   36       5023.600000000000        -0.007291483203
   37       1419.800000000000        -0.028104403257
   38        459.470000000000        -0.083232082748
   39        160.840000000000        -0.132025697038
   40         42.985000000000         0.223917411273
   41         18.685000000000         0.779530146130
   42          6.044300000000        -0.486507160807
   43          2.543200000000        -2.041402990964
   44          0.546630000000         1.828321346768
   45          0.215330000000        -0.606214901089
 S 45
    1     147050.000000000000         0.000082640812
    2      22074.000000000000         0.000635276864
    3       5023.600000000000         0.003178703616
    4       1419.800000000000         0.011424652125
    5        459.470000000000         0.026183295424
    6        160.840000000000         0.026355661450
    7         42.985000000000         0.004315423294
    8         18.685000000000        -0.001446556834
    9          6.044300000000         0.000588100230
   10          2.543200000000        -0.000275732930
   11          0.546630000000         0.000085234209
   12     147050.000000000000        -0.000173521762
   13      22074.000000000000        -0.001333570995
   14       5023.600000000000        -0.006886582430
   15       1419.800000000000        -0.026286677699
   16        459.470000000000        -0.075336763975
   17        160.840000000000        -0.110508865863
   18         42.985000000000         0.131012292700
   19         18.685000000000         0.302946614021
   20          6.044300000000         0.053571867437
   21          2.543200000000        -0.009660967521
   22          0.546630000000         0.002342564988
   23     147050.000000000000         0.000276555951
   24      22074.000000000000         0.002126632539
   25       5023.600000000000         0.011017062870
   26       1419.800000000000         0.042437451814
   27        459.470000000000         0.125032901956
   28        160.840000000000         0.196585863417
   29         42.985000000000        -0.319803480755
   30         18.685000000000        -1.033204422847
   31          6.044300000000         0.488323388336
   32          2.543200000000         1.478244803341
   33          0.546630000000         0.135889131792
   34     147050.000000000000        -0.000175443823
   35      22074.000000000000        -0.001348766494
   36       5023.600000000000        -0.006994488882
   37       1419.800000000000        -0.026959663850
   38        459.470000000000        -0.079841900641
   39        160.840000000000        -0.126648069314
   40         42.985000000000         0.214796880151
   41         18.685000000000         0.747778577917
   42          6.044300000000        -0.466690909467
   43          2.543200000000        -1.958253228715
   44          0.546630000000         1.753850756702
   45          0.215330000000        -2.100864813860
 P 28
    1       3021.600000000000         0.002990180429
    2        714.730000000000         0.024471595881
    3        230.160000000000         0.112929440834
    4         86.130000000000         0.318717946198
    5         35.027000000000         0.463091285305
    6         14.876000000000         0.242502382463
    7          5.845500000000         0.018685733362
    8          2.285600000000        -0.000642770704
    9          0.585700000000         0.000071927338
   10       3021.600000000000         0.000083338289
   11        714.730000000000         0.000681890372
   12        230.160000000000         0.003298568774
   13         86.130000000000         0.009760186848
   14         35.027000000000         0.015618000685
   15         14.876000000000        -0.001924036199
   16          5.845500000000        -0.038675649261
   17          2.285600000000        -0.032493733483
   18          0.585700000000        -0.002713483552
   19       3021.600000000000         0.000021005246
   20        714.730000000000         0.000174718141
   21        230.160000000000         0.000834762160
   22         86.130000000000         0.002545350504
   23         35.027000000000         0.003956866183
   24         14.876000000000        -0.000644657046
   25          5.845500000000        -0.013930815771
   26          2.285600000000        -0.008233440220
   27          0.585700000000         0.034391980869
   28          0.170950000000        -0.012593912819
 P 28
    1       3021.600000000000        -0.000222929849
    2        714.730000000000        -0.001824454846
    3        230.160000000000        -0.008419339166
    4         86.130000000000        -0.023761691082
    5         35.027000000000        -0.034525297981
    6         14.876000000000        -0.018079517540
    7          5.845500000000        -0.001393095774
    8          2.285600000000         0.000047921114
    9          0.585700000000        -0.000005362469
   10       3021.600000000000         0.001138281385
   11        714.730000000000         0.009313643542
   12        230.160000000000         0.045053713934
   13         86.130000000000         0.133310140331
   14         35.027000000000         0.213319467698
   15         14.876000000000        -0.026279572282
   16          5.845500000000        -0.528253845025
   17          2.285600000000        -0.443817750436
   18          0.585700000000        -0.037062289767
   19       3021.600000000000         0.000165656190
   20        714.730000000000         0.001377900607
   21        230.160000000000         0.006583284817
   22         86.130000000000         0.020073702591
   23         35.027000000000         0.031205507777
   24         14.876000000000        -0.005084036088
   25          5.845500000000        -0.109864261204
   26          2.285600000000        -0.064932365902
   27          0.585700000000         0.271229598587
   28          0.170950000000        -0.084096763299
 P 28
    1       3021.600000000000         0.000018897124
    2        714.730000000000         0.000154653806
    3        230.160000000000         0.000713683240
    4         86.130000000000         0.002014210421
    5         35.027000000000         0.002926610515
    6         14.876000000000         0.001532548862
    7          5.845500000000         0.000118088734
    8          2.285600000000        -0.000004062135
    9          0.585700000000         0.000000454561
   10       3021.600000000000        -0.000521750151
   11        714.730000000000        -0.004269062985
   12        230.160000000000        -0.020651117004
   13         86.130000000000        -0.061104913789
   14         35.027000000000        -0.097778515954
   15         14.876000000000         0.012045677806
   16          5.845500000000         0.242133911035
   17          2.285600000000         0.203431226695
   18          0.585700000000         0.016988115198
   19       3021.600000000000         0.000752185439
   20        714.730000000000         0.006256553255
   21        230.160000000000         0.029892339005
   22         86.130000000000         0.091147495459
   23         35.027000000000         0.141693036718
   24         14.876000000000        -0.023084787378
   25          5.845500000000        -0.498854269836
   26          2.285600000000        -0.294834622522
   27          0.585700000000         1.231556485054
   28          0.170950000000        -0.303929628860
 P 28
    1       3021.600000000000         0.000051479936
    2        714.730000000000         0.000421311091
    3        230.160000000000         0.001944230616
    4         86.130000000000         0.005487153609
    5         35.027000000000         0.007972732781
    6         14.876000000000         0.004175001248
    7          5.845500000000         0.000321699768
    8          2.285600000000        -0.000011066153
    9          0.585700000000         0.000001238325
   10       3021.600000000000        -0.000359538882
   11        714.730000000000        -0.002941818277
   12        230.160000000000        -0.014230718460
   13         86.130000000000        -0.042107495903
   14         35.027000000000        -0.067379335059
   15         14.876000000000         0.008300696252
   16          5.845500000000         0.166854873603
   17          2.285600000000         0.140184790607
   18          0.585700000000         0.011706537932
   19       3021.600000000000         0.000380243001
   20        714.730000000000         0.003162797981
   21        230.160000000000         0.015111104406
   22         86.130000000000         0.046076665997
   23         35.027000000000         0.071628328283
   24         14.876000000000        -0.011669767033
   25          5.845500000000        -0.252179628816
   26          2.285600000000        -0.149044099981
   27          0.585700000000         0.622573517048
   28          0.170950000000        -1.283177840631
 D 7
    1        186.590000000000         0.008887229775
    2         54.949000000000         0.063570174046
    3         20.191000000000         0.218925145135
    4          8.080600000000         0.409358449363
    5          3.205200000000         0.427805419031
    6          1.177800000000         0.184503921120
    7          0.393000000000        -0.126182040049
 D 7
    1        186.590000000000         0.000800425264
    2         54.949000000000         0.005725425657
    3         20.191000000000         0.019717417197
    4          8.080600000000         0.036868726634
    5          3.205200000000         0.038530146553
    6          1.177800000000         0.016617281605
    7          0.393000000000        -1.015412170829
 end
  // -----------------------------------------------
  // The basis set
  // -----------------------------------------------
  BAS[ATNO] = new BFNGauss[NSH];
  // Basis function   1 L = s
  InitBFNGauss(BAS[ATNO][  0]);
  BAS[ATNO][  0].l  = 0;
  BAS[ATNO][  0].ng = 45;
  BAS[ATNO][  0].a[  0] =    147050.000000000000;     BAS[ATNO][  0].d[  0] =         0.001335029195;
  BAS[ATNO][  0].a[  1] =     22074.000000000000;     BAS[ATNO][  0].d[  1] =         0.010262643106;
  BAS[ATNO][  0].a[  2] =      5023.600000000000;     BAS[ATNO][  0].d[  2] =         0.051350682864;
  BAS[ATNO][  0].a[  3] =      1419.800000000000;     BAS[ATNO][  0].d[  3] =         0.184560675975;
  BAS[ATNO][  0].a[  4] =       459.470000000000;     BAS[ATNO][  0].d[  4] =         0.422980643060;
  BAS[ATNO][  0].a[  5] =       160.840000000000;     BAS[ATNO][  0].d[  5] =         0.425765147122;
  BAS[ATNO][  0].a[  6] =        42.985000000000;     BAS[ATNO][  0].d[  6] =         0.069713933660;
  BAS[ATNO][  0].a[  7] =        18.685000000000;     BAS[ATNO][  0].d[  7] =        -0.023368545865;
  BAS[ATNO][  0].a[  8] =         6.044300000000;     BAS[ATNO][  0].d[  8] =         0.009500523493;
  BAS[ATNO][  0].a[  9] =         2.543200000000;     BAS[ATNO][  0].d[  9] =        -0.004454354969;
  BAS[ATNO][  0].a[ 10] =         0.546630000000;     BAS[ATNO][  0].d[ 10] =         0.001376924486;
  BAS[ATNO][  0].a[ 11] =    147050.000000000000;     BAS[ATNO][  0].d[ 11] =         0.000002194974;
  BAS[ATNO][  0].a[ 12] =     22074.000000000000;     BAS[ATNO][  0].d[ 12] =         0.000016869083;
  BAS[ATNO][  0].a[ 13] =      5023.600000000000;     BAS[ATNO][  0].d[ 13] =         0.000087112223;
  BAS[ATNO][  0].a[ 14] =      1419.800000000000;     BAS[ATNO][  0].d[ 14] =         0.000332514850;
  BAS[ATNO][  0].a[ 15] =       459.470000000000;     BAS[ATNO][  0].d[ 15] =         0.000952976753;
  BAS[ATNO][  0].a[ 16] =       160.840000000000;     BAS[ATNO][  0].d[ 16] =         0.001397888290;
  BAS[ATNO][  0].a[ 17] =        42.985000000000;     BAS[ATNO][  0].d[ 17] =        -0.001657247574;
  BAS[ATNO][  0].a[ 18] =        18.685000000000;     BAS[ATNO][  0].d[ 18] =        -0.003832140716;
  BAS[ATNO][  0].a[ 19] =         6.044300000000;     BAS[ATNO][  0].d[ 19] =        -0.000677660436;
  BAS[ATNO][  0].a[ 20] =         2.543200000000;     BAS[ATNO][  0].d[ 20] =         0.000122206967;
  BAS[ATNO][  0].a[ 21] =         0.546630000000;     BAS[ATNO][  0].d[ 21] =        -0.000029632411;
  BAS[ATNO][  0].a[ 22] =    147050.000000000000;     BAS[ATNO][  0].d[ 22] =         0.000000098004;
  BAS[ATNO][  0].a[ 23] =     22074.000000000000;     BAS[ATNO][  0].d[ 23] =         0.000000753625;
  BAS[ATNO][  0].a[ 24] =      5023.600000000000;     BAS[ATNO][  0].d[ 24] =         0.000003904170;
  BAS[ATNO][  0].a[ 25] =      1419.800000000000;     BAS[ATNO][  0].d[ 25] =         0.000015038767;
  BAS[ATNO][  0].a[ 26] =       459.470000000000;     BAS[ATNO][  0].d[ 26] =         0.000044308520;
  BAS[ATNO][  0].a[ 27] =       160.840000000000;     BAS[ATNO][  0].d[ 27] =         0.000069665092;
  BAS[ATNO][  0].a[ 28] =        42.985000000000;     BAS[ATNO][  0].d[ 28] =        -0.000113330320;
  BAS[ATNO][  0].a[ 29] =        18.685000000000;     BAS[ATNO][  0].d[ 29] =        -0.000366141694;
  BAS[ATNO][  0].a[ 30] =         6.044300000000;     BAS[ATNO][  0].d[ 30] =         0.000173049542;
  BAS[ATNO][  0].a[ 31] =         2.543200000000;     BAS[ATNO][  0].d[ 31] =         0.000523852826;
  BAS[ATNO][  0].a[ 32] =         0.546630000000;     BAS[ATNO][  0].d[ 32] =         0.000048155695;
  BAS[ATNO][  0].a[ 33] =    147050.000000000000;     BAS[ATNO][  0].d[ 33] =         0.000000142619;
  BAS[ATNO][  0].a[ 34] =     22074.000000000000;     BAS[ATNO][  0].d[ 34] =         0.000001096420;
  BAS[ATNO][  0].a[ 35] =      5023.600000000000;     BAS[ATNO][  0].d[ 35] =         0.000005685859;
  BAS[ATNO][  0].a[ 36] =      1419.800000000000;     BAS[ATNO][  0].d[ 36] =         0.000021915663;
  BAS[ATNO][  0].a[ 37] =       459.470000000000;     BAS[ATNO][  0].d[ 37] =         0.000064903931;
  BAS[ATNO][  0].a[ 38] =       160.840000000000;     BAS[ATNO][  0].d[ 38] =         0.000102952929;
  BAS[ATNO][  0].a[ 39] =        42.985000000000;     BAS[ATNO][  0].d[ 39] =        -0.000174609595;
  BAS[ATNO][  0].a[ 40] =        18.685000000000;     BAS[ATNO][  0].d[ 40] =        -0.000607873421;
  BAS[ATNO][  0].a[ 41] =         6.044300000000;     BAS[ATNO][  0].d[ 41] =         0.000379375671;
  BAS[ATNO][  0].a[ 42] =         2.543200000000;     BAS[ATNO][  0].d[ 42] =         0.001591875088;
  BAS[ATNO][  0].a[ 43] =         0.546630000000;     BAS[ATNO][  0].d[ 43] =        -0.001425715166;
  BAS[ATNO][  0].a[ 44] =         0.215330000000;     BAS[ATNO][  0].d[ 44] =         0.000040224355;

  // Basis function   2 L = s
  InitBFNGauss(BAS[ATNO][  1]);
  BAS[ATNO][  1].l  = 0;
  BAS[ATNO][  1].ng = 45;
  BAS[ATNO][  1].a[  0] =    147050.000000000000;     BAS[ATNO][  1].d[  0] =         0.000008533757;
  BAS[ATNO][  1].a[  1] =     22074.000000000000;     BAS[ATNO][  1].d[  1] =         0.000065600736;
  BAS[ATNO][  1].a[  2] =      5023.600000000000;     BAS[ATNO][  1].d[  2] =         0.000328243179;
  BAS[ATNO][  1].a[  3] =      1419.800000000000;     BAS[ATNO][  1].d[  3] =         0.001179746397;
  BAS[ATNO][  1].a[  4] =       459.470000000000;     BAS[ATNO][  1].d[  4] =         0.002703771467;
  BAS[ATNO][  1].a[  5] =       160.840000000000;     BAS[ATNO][  1].d[  5] =         0.002721570538;
  BAS[ATNO][  1].a[  6] =        42.985000000000;     BAS[ATNO][  1].d[  6] =         0.000445624517;
  BAS[ATNO][  1].a[  7] =        18.685000000000;     BAS[ATNO][  1].d[  7] =        -0.000149376121;
  BAS[ATNO][  1].a[  8] =         6.044300000000;     BAS[ATNO][  1].d[  8] =         0.000060729125;
  BAS[ATNO][  1].a[  9] =         2.543200000000;     BAS[ATNO][  1].d[  9] =        -0.000028473071;
  BAS[ATNO][  1].a[ 10] =         0.546630000000;     BAS[ATNO][  1].d[ 10] =         0.000008801559;
  BAS[ATNO][  1].a[ 11] =    147050.000000000000;     BAS[ATNO][  1].d[ 11] =        -0.000422417813;
  BAS[ATNO][  1].a[ 12] =     22074.000000000000;     BAS[ATNO][  1].d[ 12] =        -0.003246417845;
  BAS[ATNO][  1].a[ 13] =      5023.600000000000;     BAS[ATNO][  1].d[ 13] =        -0.016764554850;
  BAS[ATNO][  1].a[ 14] =      1419.800000000000;     BAS[ATNO][  1].d[ 14] =        -0.063991748386;
  BAS[ATNO][  1].a[ 15] =       459.470000000000;     BAS[ATNO][  1].d[ 15] =        -0.183398271160;
  BAS[ATNO][  1].a[ 16] =       160.840000000000;     BAS[ATNO][  1].d[ 16] =        -0.269020513728;
  BAS[ATNO][  1].a[ 17] =        42.985000000000;     BAS[ATNO][  1].d[ 17] =         0.318933634977;
  BAS[ATNO][  1].a[ 18] =        18.685000000000;     BAS[ATNO][  1].d[ 18] =         0.737487016087;
  BAS[ATNO][  1].a[ 19] =         6.044300000000;     BAS[ATNO][  1].d[ 19] =         0.130414253977;
  BAS[ATNO][  1].a[ 20] =         2.543200000000;     BAS[ATNO][  1].d[ 20] =        -0.023518460943;
  BAS[ATNO][  1].a[ 21] =         0.546630000000;     BAS[ATNO][  1].d[ 21] =         0.005702692101;
  BAS[ATNO][  1].a[ 22] =    147050.000000000000;     BAS[ATNO][  1].d[ 22] =        -0.000006385163;
  BAS[ATNO][  1].a[ 23] =     22074.000000000000;     BAS[ATNO][  1].d[ 23] =        -0.000049099995;
  BAS[ATNO][  1].a[ 24] =      5023.600000000000;     BAS[ATNO][  1].d[ 24] =        -0.000254363519;
  BAS[ATNO][  1].a[ 25] =      1419.800000000000;     BAS[ATNO][  1].d[ 25] =        -0.000979801941;
  BAS[ATNO][  1].a[ 26] =       459.470000000000;     BAS[ATNO][  1].d[ 26] =        -0.002886777474;
  BAS[ATNO][  1].a[ 27] =       160.840000000000;     BAS[ATNO][  1].d[ 27] =        -0.004538802455;
  BAS[ATNO][  1].a[ 28] =        42.985000000000;     BAS[ATNO][  1].d[ 28] =         0.007383668379;
  BAS[ATNO][  1].a[ 29] =        18.685000000000;     BAS[ATNO][  1].d[ 29] =         0.023854771086;
  BAS[ATNO][  1].a[ 30] =         6.044300000000;     BAS[ATNO][  1].d[ 30] =        -0.011274480042;
  BAS[ATNO][  1].a[ 31] =         2.543200000000;     BAS[ATNO][  1].d[ 31] =        -0.034129926869;
  BAS[ATNO][  1].a[ 32] =         0.546630000000;     BAS[ATNO][  1].d[ 32] =        -0.003137427657;
  BAS[ATNO][  1].a[ 33] =    147050.000000000000;     BAS[ATNO][  1].d[ 33] =        -0.000005430652;
  BAS[ATNO][  1].a[ 34] =     22074.000000000000;     BAS[ATNO][  1].d[ 34] =        -0.000041749441;
  BAS[ATNO][  1].a[ 35] =      5023.600000000000;     BAS[ATNO][  1].d[ 35] =        -0.000216505972;
  BAS[ATNO][  1].a[ 36] =      1419.800000000000;     BAS[ATNO][  1].d[ 36] =        -0.000834503897;
  BAS[ATNO][  1].a[ 37] =       459.470000000000;     BAS[ATNO][  1].d[ 37] =        -0.002471409791;
  BAS[ATNO][  1].a[ 38] =       160.840000000000;     BAS[ATNO][  1].d[ 38] =        -0.003920238320;
  BAS[ATNO][  1].a[ 39] =        42.985000000000;     BAS[ATNO][  1].d[ 39] =         0.006648778503;
  BAS[ATNO][  1].a[ 40] =        18.685000000000;     BAS[ATNO][  1].d[ 40] =         0.023146584486;
  BAS[ATNO][  1].a[ 41] =         6.044300000000;     BAS[ATNO][  1].d[ 41] =        -0.014445854540;
  BAS[ATNO][  1].a[ 42] =         2.543200000000;     BAS[ATNO][  1].d[ 42] =        -0.060615368162;
  BAS[ATNO][  1].a[ 43] =         0.546630000000;     BAS[ATNO][  1].d[ 43] =         0.054288336033;
  BAS[ATNO][  1].a[ 44] =         0.215330000000;     BAS[ATNO][  1].d[ 44] =        -0.024529583747;

  // Basis function   3 L = s
  InitBFNGauss(BAS[ATNO][  2]);
  BAS[ATNO][  2].l  = 0;
  BAS[ATNO][  2].ng = 45;
  BAS[ATNO][  2].a[  0] =    147050.000000000000;     BAS[ATNO][  2].d[  0] =        -0.000014728402;
  BAS[ATNO][  2].a[  1] =     22074.000000000000;     BAS[ATNO][  2].d[  1] =        -0.000113220244;
  BAS[ATNO][  2].a[  2] =      5023.600000000000;     BAS[ATNO][  2].d[  2] =        -0.000566514570;
  BAS[ATNO][  2].a[  3] =      1419.800000000000;     BAS[ATNO][  2].d[  3] =        -0.002036123109;
  BAS[ATNO][  2].a[  4] =       459.470000000000;     BAS[ATNO][  2].d[  4] =        -0.004666436431;
  BAS[ATNO][  2].a[  5] =       160.840000000000;     BAS[ATNO][  2].d[  5] =        -0.004697155830;
  BAS[ATNO][  2].a[  6] =        42.985000000000;     BAS[ATNO][  2].d[  6] =        -0.000769102901;
  BAS[ATNO][  2].a[  7] =        18.685000000000;     BAS[ATNO][  2].d[  7] =         0.000257808095;
  BAS[ATNO][  2].a[  8] =         6.044300000000;     BAS[ATNO][  2].d[  8] =        -0.000104812335;
  BAS[ATNO][  2].a[  9] =         2.543200000000;     BAS[ATNO][  2].d[  9] =         0.000049141644;
  BAS[ATNO][  2].a[ 10] =         0.546630000000;     BAS[ATNO][  2].d[ 10] =        -0.000015190602;
  BAS[ATNO][  2].a[ 11] =    147050.000000000000;     BAS[ATNO][  2].d[ 11] =        -0.000003818393;
  BAS[ATNO][  2].a[ 12] =     22074.000000000000;     BAS[ATNO][  2].d[ 12] =        -0.000029345591;
  BAS[ATNO][  2].a[ 13] =      5023.600000000000;     BAS[ATNO][  2].d[ 13] =        -0.000151541113;
  BAS[ATNO][  2].a[ 14] =      1419.800000000000;     BAS[ATNO][  2].d[ 14] =        -0.000578445466;
  BAS[ATNO][  2].a[ 15] =       459.470000000000;     BAS[ATNO][  2].d[ 15] =        -0.001657805908;
  BAS[ATNO][  2].a[ 16] =       160.840000000000;     BAS[ATNO][  2].d[ 16] =        -0.002431777541;
  BAS[ATNO][  2].a[ 17] =        42.985000000000;     BAS[ATNO][  2].d[ 17] =         0.002882961005;
  BAS[ATNO][  2].a[ 18] =        18.685000000000;     BAS[ATNO][  2].d[ 18] =         0.006666422341;
  BAS[ATNO][  2].a[ 19] =         6.044300000000;     BAS[ATNO][  2].d[ 19] =         0.001178863461;
  BAS[ATNO][  2].a[ 20] =         2.543200000000;     BAS[ATNO][  2].d[ 20] =        -0.000212592208;
  BAS[ATNO][  2].a[ 21] =         0.546630000000;     BAS[ATNO][  2].d[ 21] =         0.000051548777;
  BAS[ATNO][  2].a[ 22] =    147050.000000000000;     BAS[ATNO][  2].d[ 22] =         0.000121412911;
  BAS[ATNO][  2].a[ 23] =     22074.000000000000;     BAS[ATNO][  2].d[ 23] =         0.000933628970;
  BAS[ATNO][  2].a[ 24] =      5023.600000000000;     BAS[ATNO][  2].d[ 24] =         0.004836683760;
  BAS[ATNO][  2].a[ 25] =      1419.800000000000;     BAS[ATNO][  2].d[ 25] =         0.018630785394;
  BAS[ATNO][  2].a[ 26] =       459.470000000000;     BAS[ATNO][  2].d[ 26] =         0.054891636136;
  BAS[ATNO][  2].a[ 27] =       160.840000000000;     BAS[ATNO][  2].d[ 27] =         0.086304640741;
  BAS[ATNO][  2].a[ 28] =        42.985000000000;     BAS[ATNO][  2].d[ 28] =        -0.140399335102;
  BAS[ATNO][  2].a[ 29] =        18.685000000000;     BAS[ATNO][  2].d[ 29] =        -0.453594856597;
  BAS[ATNO][  2].a[ 30] =         6.044300000000;     BAS[ATNO][  2].d[ 30] =         0.214382529156;
  BAS[ATNO][  2].a[ 31] =         2.543200000000;     BAS[ATNO][  2].d[ 31] =         0.648975386439;
  BAS[ATNO][  2].a[ 32] =         0.546630000000;     BAS[ATNO][  2].d[ 32] =         0.059657711374;
  BAS[ATNO][  2].a[ 33] =    147050.000000000000;     BAS[ATNO][  2].d[ 33] =         0.000042443799;
  BAS[ATNO][  2].a[ 34] =     22074.000000000000;     BAS[ATNO][  2].d[ 34] =         0.000326296892;
  BAS[ATNO][  2].a[ 35] =      5023.600000000000;     BAS[ATNO][  2].d[ 35] =         0.001692123871;
  BAS[ATNO][  2].a[ 36] =      1419.800000000000;     BAS[ATNO][  2].d[ 36] =         0.006522147869;
  BAS[ATNO][  2].a[ 37] =       459.470000000000;     BAS[ATNO][  2].d[ 37] =         0.019315548036;
  BAS[ATNO][  2].a[ 38] =       160.840000000000;     BAS[ATNO][  2].d[ 38] =         0.030639010931;
  BAS[ATNO][  2].a[ 39] =        42.985000000000;     BAS[ATNO][  2].d[ 39] =        -0.051964187015;
  BAS[ATNO][  2].a[ 40] =        18.685000000000;     BAS[ATNO][  2].d[ 40] =        -0.180904423945;
  BAS[ATNO][  2].a[ 41] =         6.044300000000;     BAS[ATNO][  2].d[ 41] =         0.112903007161;
  BAS[ATNO][  2].a[ 42] =         2.543200000000;     BAS[ATNO][  2].d[ 42] =         0.473745414407;
  BAS[ATNO][  2].a[ 43] =         0.546630000000;     BAS[ATNO][  2].d[ 43] =        -0.424295868051;
  BAS[ATNO][  2].a[ 44] =         0.215330000000;     BAS[ATNO][  2].d[ 44] =         0.149643307530;

  // Basis function   4 L = s
  InitBFNGauss(BAS[ATNO][  3]);
  BAS[ATNO][  3].l  = 0;
  BAS[ATNO][  3].ng = 45;
  BAS[ATNO][  3].a[  0] =    147050.000000000000;     BAS[ATNO][  3].d[  0] =        -0.000054181971;
  BAS[ATNO][  3].a[  1] =     22074.000000000000;     BAS[ATNO][  3].d[  1] =        -0.000416507915;
  BAS[ATNO][  3].a[  2] =      5023.600000000000;     BAS[ATNO][  3].d[  2] =        -0.002084060183;
  BAS[ATNO][  3].a[  3] =      1419.800000000000;     BAS[ATNO][  3].d[  3] =        -0.007490368864;
  BAS[ATNO][  3].a[  4] =       459.470000000000;     BAS[ATNO][  3].d[  4] =        -0.017166609422;
  BAS[ATNO][  3].a[  5] =       160.840000000000;     BAS[ATNO][  3].d[  5] =        -0.017279618124;
  BAS[ATNO][  3].a[  6] =        42.985000000000;     BAS[ATNO][  3].d[  6] =        -0.002829330112;
  BAS[ATNO][  3].a[  7] =        18.685000000000;     BAS[ATNO][  3].d[  7] =         0.000948409120;
  BAS[ATNO][  3].a[  8] =         6.044300000000;     BAS[ATNO][  3].d[  8] =        -0.000385577399;
  BAS[ATNO][  3].a[  9] =         2.543200000000;     BAS[ATNO][  3].d[  9] =         0.000180779365;
  BAS[ATNO][  3].a[ 10] =         0.546630000000;     BAS[ATNO][  3].d[ 10] =        -0.000055882285;
  BAS[ATNO][  3].a[ 11] =    147050.000000000000;     BAS[ATNO][  3].d[ 11] =         0.000109557070;
  BAS[ATNO][  3].a[ 12] =     22074.000000000000;     BAS[ATNO][  3].d[ 12] =         0.000841981602;
  BAS[ATNO][  3].a[ 13] =      5023.600000000000;     BAS[ATNO][  3].d[ 13] =         0.004348006765;
  BAS[ATNO][  3].a[ 14] =      1419.800000000000;     BAS[ATNO][  3].d[ 14] =         0.016596715952;
  BAS[ATNO][  3].a[ 15] =       459.470000000000;     BAS[ATNO][  3].d[ 15] =         0.047565648530;
  BAS[ATNO][  3].a[ 16] =       160.840000000000;     BAS[ATNO][  3].d[ 16] =         0.069772387288;
  BAS[ATNO][  3].a[ 17] =        42.985000000000;     BAS[ATNO][  3].d[ 17] =        -0.082717710967;
  BAS[ATNO][  3].a[ 18] =        18.685000000000;     BAS[ATNO][  3].d[ 18] =        -0.191272512988;
  BAS[ATNO][  3].a[ 19] =         6.044300000000;     BAS[ATNO][  3].d[ 19] =        -0.033823866107;
  BAS[ATNO][  3].a[ 20] =         2.543200000000;     BAS[ATNO][  3].d[ 20] =         0.006099680439;
  BAS[ATNO][  3].a[ 21] =         0.546630000000;     BAS[ATNO][  3].d[ 21] =        -0.001479033834;
  BAS[ATNO][  3].a[ 22] =    147050.000000000000;     BAS[ATNO][  3].d[ 22] =        -0.000213314865;
  BAS[ATNO][  3].a[ 23] =     22074.000000000000;     BAS[ATNO][  3].d[ 23] =        -0.001640327503;
  BAS[ATNO][  3].a[ 24] =      5023.600000000000;     BAS[ATNO][  3].d[ 24] =        -0.008497749796;
  BAS[ATNO][  3].a[ 25] =      1419.800000000000;     BAS[ATNO][  3].d[ 25] =        -0.032733120590;
  BAS[ATNO][  3].a[ 26] =       459.470000000000;     BAS[ATNO][  3].d[ 26] =        -0.096441159460;
  BAS[ATNO][  3].a[ 27] =       160.840000000000;     BAS[ATNO][  3].d[ 27] =        -0.151631836939;
  BAS[ATNO][  3].a[ 28] =        42.985000000000;     BAS[ATNO][  3].d[ 28] =         0.246672819721;
  BAS[ATNO][  3].a[ 29] =        18.685000000000;     BAS[ATNO][  3].d[ 29] =         0.796937693517;
  BAS[ATNO][  3].a[ 30] =         6.044300000000;     BAS[ATNO][  3].d[ 30] =        -0.376656648176;
  BAS[ATNO][  3].a[ 31] =         2.543200000000;     BAS[ATNO][  3].d[ 31] =        -1.140209021543;
  BAS[ATNO][  3].a[ 32] =         0.546630000000;     BAS[ATNO][  3].d[ 32] =        -0.104814854514;
  BAS[ATNO][  3].a[ 33] =    147050.000000000000;     BAS[ATNO][  3].d[ 33] =         0.000182893377;
  BAS[ATNO][  3].a[ 34] =     22074.000000000000;     BAS[ATNO][  3].d[ 34] =         0.001406036724;
  BAS[ATNO][  3].a[ 35] =      5023.600000000000;     BAS[ATNO][  3].d[ 35] =         0.007291483203;
  BAS[ATNO][  3].a[ 36] =      1419.800000000000;     BAS[ATNO][  3].d[ 36] =         0.028104403257;
  BAS[ATNO][  3].a[ 37] =       459.470000000000;     BAS[ATNO][  3].d[ 37] =         0.083232082748;
  BAS[ATNO][  3].a[ 38] =       160.840000000000;     BAS[ATNO][  3].d[ 38] =         0.132025697038;
  BAS[ATNO][  3].a[ 39] =        42.985000000000;     BAS[ATNO][  3].d[ 39] =        -0.223917411273;
  BAS[ATNO][  3].a[ 40] =        18.685000000000;     BAS[ATNO][  3].d[ 40] =        -0.779530146130;
  BAS[ATNO][  3].a[ 41] =         6.044300000000;     BAS[ATNO][  3].d[ 41] =         0.486507160807;
  BAS[ATNO][  3].a[ 42] =         2.543200000000;     BAS[ATNO][  3].d[ 42] =         2.041402990964;
  BAS[ATNO][  3].a[ 43] =         0.546630000000;     BAS[ATNO][  3].d[ 43] =        -1.828321346768;
  BAS[ATNO][  3].a[ 44] =         0.215330000000;     BAS[ATNO][  3].d[ 44] =         0.606214901089;

  // Basis function   5 L = s
  InitBFNGauss(BAS[ATNO][  4]);
  BAS[ATNO][  4].l  = 0;
  BAS[ATNO][  4].ng = 45;
  BAS[ATNO][  4].a[  0] =    147050.000000000000;     BAS[ATNO][  4].d[  0] =        -0.000082640812;
  BAS[ATNO][  4].a[  1] =     22074.000000000000;     BAS[ATNO][  4].d[  1] =        -0.000635276864;
  BAS[ATNO][  4].a[  2] =      5023.600000000000;     BAS[ATNO][  4].d[  2] =        -0.003178703616;
  BAS[ATNO][  4].a[  3] =      1419.800000000000;     BAS[ATNO][  4].d[  3] =        -0.011424652125;
  BAS[ATNO][  4].a[  4] =       459.470000000000;     BAS[ATNO][  4].d[  4] =        -0.026183295424;
  BAS[ATNO][  4].a[  5] =       160.840000000000;     BAS[ATNO][  4].d[  5] =        -0.026355661450;
  BAS[ATNO][  4].a[  6] =        42.985000000000;     BAS[ATNO][  4].d[  6] =        -0.004315423294;
  BAS[ATNO][  4].a[  7] =        18.685000000000;     BAS[ATNO][  4].d[  7] =         0.001446556834;
  BAS[ATNO][  4].a[  8] =         6.044300000000;     BAS[ATNO][  4].d[  8] =        -0.000588100230;
  BAS[ATNO][  4].a[  9] =         2.543200000000;     BAS[ATNO][  4].d[  9] =         0.000275732930;
  BAS[ATNO][  4].a[ 10] =         0.546630000000;     BAS[ATNO][  4].d[ 10] =        -0.000085234209;
  BAS[ATNO][  4].a[ 11] =    147050.000000000000;     BAS[ATNO][  4].d[ 11] =         0.000173521762;
  BAS[ATNO][  4].a[ 12] =     22074.000000000000;     BAS[ATNO][  4].d[ 12] =         0.001333570995;
  BAS[ATNO][  4].a[ 13] =      5023.600000000000;     BAS[ATNO][  4].d[ 13] =         0.006886582430;
  BAS[ATNO][  4].a[ 14] =      1419.800000000000;     BAS[ATNO][  4].d[ 14] =         0.026286677699;
  BAS[ATNO][  4].a[ 15] =       459.470000000000;     BAS[ATNO][  4].d[ 15] =         0.075336763975;
  BAS[ATNO][  4].a[ 16] =       160.840000000000;     BAS[ATNO][  4].d[ 16] =         0.110508865863;
  BAS[ATNO][  4].a[ 17] =        42.985000000000;     BAS[ATNO][  4].d[ 17] =        -0.131012292700;
  BAS[ATNO][  4].a[ 18] =        18.685000000000;     BAS[ATNO][  4].d[ 18] =        -0.302946614021;
  BAS[ATNO][  4].a[ 19] =         6.044300000000;     BAS[ATNO][  4].d[ 19] =        -0.053571867437;
  BAS[ATNO][  4].a[ 20] =         2.543200000000;     BAS[ATNO][  4].d[ 20] =         0.009660967521;
  BAS[ATNO][  4].a[ 21] =         0.546630000000;     BAS[ATNO][  4].d[ 21] =        -0.002342564988;
  BAS[ATNO][  4].a[ 22] =    147050.000000000000;     BAS[ATNO][  4].d[ 22] =        -0.000276555951;
  BAS[ATNO][  4].a[ 23] =     22074.000000000000;     BAS[ATNO][  4].d[ 23] =        -0.002126632539;
  BAS[ATNO][  4].a[ 24] =      5023.600000000000;     BAS[ATNO][  4].d[ 24] =        -0.011017062870;
  BAS[ATNO][  4].a[ 25] =      1419.800000000000;     BAS[ATNO][  4].d[ 25] =        -0.042437451814;
  BAS[ATNO][  4].a[ 26] =       459.470000000000;     BAS[ATNO][  4].d[ 26] =        -0.125032901956;
  BAS[ATNO][  4].a[ 27] =       160.840000000000;     BAS[ATNO][  4].d[ 27] =        -0.196585863417;
  BAS[ATNO][  4].a[ 28] =        42.985000000000;     BAS[ATNO][  4].d[ 28] =         0.319803480755;
  BAS[ATNO][  4].a[ 29] =        18.685000000000;     BAS[ATNO][  4].d[ 29] =         1.033204422847;
  BAS[ATNO][  4].a[ 30] =         6.044300000000;     BAS[ATNO][  4].d[ 30] =        -0.488323388336;
  BAS[ATNO][  4].a[ 31] =         2.543200000000;     BAS[ATNO][  4].d[ 31] =        -1.478244803341;
  BAS[ATNO][  4].a[ 32] =         0.546630000000;     BAS[ATNO][  4].d[ 32] =        -0.135889131792;
  BAS[ATNO][  4].a[ 33] =    147050.000000000000;     BAS[ATNO][  4].d[ 33] =         0.000175443823;
  BAS[ATNO][  4].a[ 34] =     22074.000000000000;     BAS[ATNO][  4].d[ 34] =         0.001348766494;
  BAS[ATNO][  4].a[ 35] =      5023.600000000000;     BAS[ATNO][  4].d[ 35] =         0.006994488882;
  BAS[ATNO][  4].a[ 36] =      1419.800000000000;     BAS[ATNO][  4].d[ 36] =         0.026959663850;
  BAS[ATNO][  4].a[ 37] =       459.470000000000;     BAS[ATNO][  4].d[ 37] =         0.079841900641;
  BAS[ATNO][  4].a[ 38] =       160.840000000000;     BAS[ATNO][  4].d[ 38] =         0.126648069314;
  BAS[ATNO][  4].a[ 39] =        42.985000000000;     BAS[ATNO][  4].d[ 39] =        -0.214796880151;
  BAS[ATNO][  4].a[ 40] =        18.685000000000;     BAS[ATNO][  4].d[ 40] =        -0.747778577917;
  BAS[ATNO][  4].a[ 41] =         6.044300000000;     BAS[ATNO][  4].d[ 41] =         0.466690909467;
  BAS[ATNO][  4].a[ 42] =         2.543200000000;     BAS[ATNO][  4].d[ 42] =         1.958253228715;
  BAS[ATNO][  4].a[ 43] =         0.546630000000;     BAS[ATNO][  4].d[ 43] =        -1.753850756702;
  BAS[ATNO][  4].a[ 44] =         0.215330000000;     BAS[ATNO][  4].d[ 44] =         2.100864813860;

  // Basis function   6 L = p
  InitBFNGauss(BAS[ATNO][  5]);
  BAS[ATNO][  5].l  = 1;
  BAS[ATNO][  5].ng = 28;
  BAS[ATNO][  5].a[  0] =      3021.600000000000;     BAS[ATNO][  5].d[  0] =         0.002990180429;
  BAS[ATNO][  5].a[  1] =       714.730000000000;     BAS[ATNO][  5].d[  1] =         0.024471595881;
  BAS[ATNO][  5].a[  2] =       230.160000000000;     BAS[ATNO][  5].d[  2] =         0.112929440834;
  BAS[ATNO][  5].a[  3] =        86.130000000000;     BAS[ATNO][  5].d[  3] =         0.318717946198;
  BAS[ATNO][  5].a[  4] =        35.027000000000;     BAS[ATNO][  5].d[  4] =         0.463091285305;
  BAS[ATNO][  5].a[  5] =        14.876000000000;     BAS[ATNO][  5].d[  5] =         0.242502382463;
  BAS[ATNO][  5].a[  6] =         5.845500000000;     BAS[ATNO][  5].d[  6] =         0.018685733362;
  BAS[ATNO][  5].a[  7] =         2.285600000000;     BAS[ATNO][  5].d[  7] =        -0.000642770704;
  BAS[ATNO][  5].a[  8] =         0.585700000000;     BAS[ATNO][  5].d[  8] =         0.000071927338;
  BAS[ATNO][  5].a[  9] =      3021.600000000000;     BAS[ATNO][  5].d[  9] =         0.000083338289;
  BAS[ATNO][  5].a[ 10] =       714.730000000000;     BAS[ATNO][  5].d[ 10] =         0.000681890372;
  BAS[ATNO][  5].a[ 11] =       230.160000000000;     BAS[ATNO][  5].d[ 11] =         0.003298568774;
  BAS[ATNO][  5].a[ 12] =        86.130000000000;     BAS[ATNO][  5].d[ 12] =         0.009760186848;
  BAS[ATNO][  5].a[ 13] =        35.027000000000;     BAS[ATNO][  5].d[ 13] =         0.015618000685;
  BAS[ATNO][  5].a[ 14] =        14.876000000000;     BAS[ATNO][  5].d[ 14] =        -0.001924036199;
  BAS[ATNO][  5].a[ 15] =         5.845500000000;     BAS[ATNO][  5].d[ 15] =        -0.038675649261;
  BAS[ATNO][  5].a[ 16] =         2.285600000000;     BAS[ATNO][  5].d[ 16] =        -0.032493733483;
  BAS[ATNO][  5].a[ 17] =         0.585700000000;     BAS[ATNO][  5].d[ 17] =        -0.002713483552;
  BAS[ATNO][  5].a[ 18] =      3021.600000000000;     BAS[ATNO][  5].d[ 18] =         0.000021005246;
  BAS[ATNO][  5].a[ 19] =       714.730000000000;     BAS[ATNO][  5].d[ 19] =         0.000174718141;
  BAS[ATNO][  5].a[ 20] =       230.160000000000;     BAS[ATNO][  5].d[ 20] =         0.000834762160;
  BAS[ATNO][  5].a[ 21] =        86.130000000000;     BAS[ATNO][  5].d[ 21] =         0.002545350504;
  BAS[ATNO][  5].a[ 22] =        35.027000000000;     BAS[ATNO][  5].d[ 22] =         0.003956866183;
  BAS[ATNO][  5].a[ 23] =        14.876000000000;     BAS[ATNO][  5].d[ 23] =        -0.000644657046;
  BAS[ATNO][  5].a[ 24] =         5.845500000000;     BAS[ATNO][  5].d[ 24] =        -0.013930815771;
  BAS[ATNO][  5].a[ 25] =         2.285600000000;     BAS[ATNO][  5].d[ 25] =        -0.008233440220;
  BAS[ATNO][  5].a[ 26] =         0.585700000000;     BAS[ATNO][  5].d[ 26] =         0.034391980869;
  BAS[ATNO][  5].a[ 27] =         0.170950000000;     BAS[ATNO][  5].d[ 27] =        -0.012593912819;

  // Basis function   7 L = p
  InitBFNGauss(BAS[ATNO][  6]);
  BAS[ATNO][  6].l  = 1;
  BAS[ATNO][  6].ng = 28;
  BAS[ATNO][  6].a[  0] =      3021.600000000000;     BAS[ATNO][  6].d[  0] =         0.000222929849;
  BAS[ATNO][  6].a[  1] =       714.730000000000;     BAS[ATNO][  6].d[  1] =         0.001824454846;
  BAS[ATNO][  6].a[  2] =       230.160000000000;     BAS[ATNO][  6].d[  2] =         0.008419339166;
  BAS[ATNO][  6].a[  3] =        86.130000000000;     BAS[ATNO][  6].d[  3] =         0.023761691082;
  BAS[ATNO][  6].a[  4] =        35.027000000000;     BAS[ATNO][  6].d[  4] =         0.034525297981;
  BAS[ATNO][  6].a[  5] =        14.876000000000;     BAS[ATNO][  6].d[  5] =         0.018079517540;
  BAS[ATNO][  6].a[  6] =         5.845500000000;     BAS[ATNO][  6].d[  6] =         0.001393095774;
  BAS[ATNO][  6].a[  7] =         2.285600000000;     BAS[ATNO][  6].d[  7] =        -0.000047921114;
  BAS[ATNO][  6].a[  8] =         0.585700000000;     BAS[ATNO][  6].d[  8] =         0.000005362469;
  BAS[ATNO][  6].a[  9] =      3021.600000000000;     BAS[ATNO][  6].d[  9] =        -0.001138281385;
  BAS[ATNO][  6].a[ 10] =       714.730000000000;     BAS[ATNO][  6].d[ 10] =        -0.009313643542;
  BAS[ATNO][  6].a[ 11] =       230.160000000000;     BAS[ATNO][  6].d[ 11] =        -0.045053713934;
  BAS[ATNO][  6].a[ 12] =        86.130000000000;     BAS[ATNO][  6].d[ 12] =        -0.133310140331;
  BAS[ATNO][  6].a[ 13] =        35.027000000000;     BAS[ATNO][  6].d[ 13] =        -0.213319467698;
  BAS[ATNO][  6].a[ 14] =        14.876000000000;     BAS[ATNO][  6].d[ 14] =         0.026279572282;
  BAS[ATNO][  6].a[ 15] =         5.845500000000;     BAS[ATNO][  6].d[ 15] =         0.528253845025;
  BAS[ATNO][  6].a[ 16] =         2.285600000000;     BAS[ATNO][  6].d[ 16] =         0.443817750436;
  BAS[ATNO][  6].a[ 17] =         0.585700000000;     BAS[ATNO][  6].d[ 17] =         0.037062289767;
  BAS[ATNO][  6].a[ 18] =      3021.600000000000;     BAS[ATNO][  6].d[ 18] =        -0.000165656190;
  BAS[ATNO][  6].a[ 19] =       714.730000000000;     BAS[ATNO][  6].d[ 19] =        -0.001377900607;
  BAS[ATNO][  6].a[ 20] =       230.160000000000;     BAS[ATNO][  6].d[ 20] =        -0.006583284817;
  BAS[ATNO][  6].a[ 21] =        86.130000000000;     BAS[ATNO][  6].d[ 21] =        -0.020073702591;
  BAS[ATNO][  6].a[ 22] =        35.027000000000;     BAS[ATNO][  6].d[ 22] =        -0.031205507777;
  BAS[ATNO][  6].a[ 23] =        14.876000000000;     BAS[ATNO][  6].d[ 23] =         0.005084036088;
  BAS[ATNO][  6].a[ 24] =         5.845500000000;     BAS[ATNO][  6].d[ 24] =         0.109864261204;
  BAS[ATNO][  6].a[ 25] =         2.285600000000;     BAS[ATNO][  6].d[ 25] =         0.064932365902;
  BAS[ATNO][  6].a[ 26] =         0.585700000000;     BAS[ATNO][  6].d[ 26] =        -0.271229598587;
  BAS[ATNO][  6].a[ 27] =         0.170950000000;     BAS[ATNO][  6].d[ 27] =         0.084096763299;

  // Basis function   8 L = p
  InitBFNGauss(BAS[ATNO][  7]);
  BAS[ATNO][  7].l  = 1;
  BAS[ATNO][  7].ng = 28;
  BAS[ATNO][  7].a[  0] =      3021.600000000000;     BAS[ATNO][  7].d[  0] =         0.000018897124;
  BAS[ATNO][  7].a[  1] =       714.730000000000;     BAS[ATNO][  7].d[  1] =         0.000154653806;
  BAS[ATNO][  7].a[  2] =       230.160000000000;     BAS[ATNO][  7].d[  2] =         0.000713683240;
  BAS[ATNO][  7].a[  3] =        86.130000000000;     BAS[ATNO][  7].d[  3] =         0.002014210421;
  BAS[ATNO][  7].a[  4] =        35.027000000000;     BAS[ATNO][  7].d[  4] =         0.002926610515;
  BAS[ATNO][  7].a[  5] =        14.876000000000;     BAS[ATNO][  7].d[  5] =         0.001532548862;
  BAS[ATNO][  7].a[  6] =         5.845500000000;     BAS[ATNO][  7].d[  6] =         0.000118088734;
  BAS[ATNO][  7].a[  7] =         2.285600000000;     BAS[ATNO][  7].d[  7] =        -0.000004062135;
  BAS[ATNO][  7].a[  8] =         0.585700000000;     BAS[ATNO][  7].d[  8] =         0.000000454561;
  BAS[ATNO][  7].a[  9] =      3021.600000000000;     BAS[ATNO][  7].d[  9] =        -0.000521750151;
  BAS[ATNO][  7].a[ 10] =       714.730000000000;     BAS[ATNO][  7].d[ 10] =        -0.004269062985;
  BAS[ATNO][  7].a[ 11] =       230.160000000000;     BAS[ATNO][  7].d[ 11] =        -0.020651117004;
  BAS[ATNO][  7].a[ 12] =        86.130000000000;     BAS[ATNO][  7].d[ 12] =        -0.061104913789;
  BAS[ATNO][  7].a[ 13] =        35.027000000000;     BAS[ATNO][  7].d[ 13] =        -0.097778515954;
  BAS[ATNO][  7].a[ 14] =        14.876000000000;     BAS[ATNO][  7].d[ 14] =         0.012045677806;
  BAS[ATNO][  7].a[ 15] =         5.845500000000;     BAS[ATNO][  7].d[ 15] =         0.242133911035;
  BAS[ATNO][  7].a[ 16] =         2.285600000000;     BAS[ATNO][  7].d[ 16] =         0.203431226695;
  BAS[ATNO][  7].a[ 17] =         0.585700000000;     BAS[ATNO][  7].d[ 17] =         0.016988115198;
  BAS[ATNO][  7].a[ 18] =      3021.600000000000;     BAS[ATNO][  7].d[ 18] =         0.000752185439;
  BAS[ATNO][  7].a[ 19] =       714.730000000000;     BAS[ATNO][  7].d[ 19] =         0.006256553255;
  BAS[ATNO][  7].a[ 20] =       230.160000000000;     BAS[ATNO][  7].d[ 20] =         0.029892339005;
  BAS[ATNO][  7].a[ 21] =        86.130000000000;     BAS[ATNO][  7].d[ 21] =         0.091147495459;
  BAS[ATNO][  7].a[ 22] =        35.027000000000;     BAS[ATNO][  7].d[ 22] =         0.141693036718;
  BAS[ATNO][  7].a[ 23] =        14.876000000000;     BAS[ATNO][  7].d[ 23] =        -0.023084787378;
  BAS[ATNO][  7].a[ 24] =         5.845500000000;     BAS[ATNO][  7].d[ 24] =        -0.498854269836;
  BAS[ATNO][  7].a[ 25] =         2.285600000000;     BAS[ATNO][  7].d[ 25] =        -0.294834622522;
  BAS[ATNO][  7].a[ 26] =         0.585700000000;     BAS[ATNO][  7].d[ 26] =         1.231556485054;
  BAS[ATNO][  7].a[ 27] =         0.170950000000;     BAS[ATNO][  7].d[ 27] =        -0.303929628860;

  // Basis function   9 L = p
  InitBFNGauss(BAS[ATNO][  8]);
  BAS[ATNO][  8].l  = 1;
  BAS[ATNO][  8].ng = 28;
  BAS[ATNO][  8].a[  0] =      3021.600000000000;     BAS[ATNO][  8].d[  0] =        -0.000051479936;
  BAS[ATNO][  8].a[  1] =       714.730000000000;     BAS[ATNO][  8].d[  1] =        -0.000421311091;
  BAS[ATNO][  8].a[  2] =       230.160000000000;     BAS[ATNO][  8].d[  2] =        -0.001944230616;
  BAS[ATNO][  8].a[  3] =        86.130000000000;     BAS[ATNO][  8].d[  3] =        -0.005487153609;
  BAS[ATNO][  8].a[  4] =        35.027000000000;     BAS[ATNO][  8].d[  4] =        -0.007972732781;
  BAS[ATNO][  8].a[  5] =        14.876000000000;     BAS[ATNO][  8].d[  5] =        -0.004175001248;
  BAS[ATNO][  8].a[  6] =         5.845500000000;     BAS[ATNO][  8].d[  6] =        -0.000321699768;
  BAS[ATNO][  8].a[  7] =         2.285600000000;     BAS[ATNO][  8].d[  7] =         0.000011066153;
  BAS[ATNO][  8].a[  8] =         0.585700000000;     BAS[ATNO][  8].d[  8] =        -0.000001238325;
  BAS[ATNO][  8].a[  9] =      3021.600000000000;     BAS[ATNO][  8].d[  9] =         0.000359538882;
  BAS[ATNO][  8].a[ 10] =       714.730000000000;     BAS[ATNO][  8].d[ 10] =         0.002941818277;
  BAS[ATNO][  8].a[ 11] =       230.160000000000;     BAS[ATNO][  8].d[ 11] =         0.014230718460;
  BAS[ATNO][  8].a[ 12] =        86.130000000000;     BAS[ATNO][  8].d[ 12] =         0.042107495903;
  BAS[ATNO][  8].a[ 13] =        35.027000000000;     BAS[ATNO][  8].d[ 13] =         0.067379335059;
  BAS[ATNO][  8].a[ 14] =        14.876000000000;     BAS[ATNO][  8].d[ 14] =        -0.008300696252;
  BAS[ATNO][  8].a[ 15] =         5.845500000000;     BAS[ATNO][  8].d[ 15] =        -0.166854873603;
  BAS[ATNO][  8].a[ 16] =         2.285600000000;     BAS[ATNO][  8].d[ 16] =        -0.140184790607;
  BAS[ATNO][  8].a[ 17] =         0.585700000000;     BAS[ATNO][  8].d[ 17] =        -0.011706537932;
  BAS[ATNO][  8].a[ 18] =      3021.600000000000;     BAS[ATNO][  8].d[ 18] =        -0.000380243001;
  BAS[ATNO][  8].a[ 19] =       714.730000000000;     BAS[ATNO][  8].d[ 19] =        -0.003162797981;
  BAS[ATNO][  8].a[ 20] =       230.160000000000;     BAS[ATNO][  8].d[ 20] =        -0.015111104406;
  BAS[ATNO][  8].a[ 21] =        86.130000000000;     BAS[ATNO][  8].d[ 21] =        -0.046076665997;
  BAS[ATNO][  8].a[ 22] =        35.027000000000;     BAS[ATNO][  8].d[ 22] =        -0.071628328283;
  BAS[ATNO][  8].a[ 23] =        14.876000000000;     BAS[ATNO][  8].d[ 23] =         0.011669767033;
  BAS[ATNO][  8].a[ 24] =         5.845500000000;     BAS[ATNO][  8].d[ 24] =         0.252179628816;
  BAS[ATNO][  8].a[ 25] =         2.285600000000;     BAS[ATNO][  8].d[ 25] =         0.149044099981;
  BAS[ATNO][  8].a[ 26] =         0.585700000000;     BAS[ATNO][  8].d[ 26] =        -0.622573517048;
  BAS[ATNO][  8].a[ 27] =         0.170950000000;     BAS[ATNO][  8].d[ 27] =         1.283177840631;

  // Basis function  10 L = d
  InitBFNGauss(BAS[ATNO][  9]);
  BAS[ATNO][  9].l  = 2;
  BAS[ATNO][  9].ng = 7;
  BAS[ATNO][  9].a[  0] =       186.590000000000;     BAS[ATNO][  9].d[  0] =         0.008887229775;
  BAS[ATNO][  9].a[  1] =        54.949000000000;     BAS[ATNO][  9].d[  1] =         0.063570174046;
  BAS[ATNO][  9].a[  2] =        20.191000000000;     BAS[ATNO][  9].d[  2] =         0.218925145135;
  BAS[ATNO][  9].a[  3] =         8.080600000000;     BAS[ATNO][  9].d[  3] =         0.409358449363;
  BAS[ATNO][  9].a[  4] =         3.205200000000;     BAS[ATNO][  9].d[  4] =         0.427805419031;
  BAS[ATNO][  9].a[  5] =         1.177800000000;     BAS[ATNO][  9].d[  5] =         0.184503921120;
  BAS[ATNO][  9].a[  6] =         0.393000000000;     BAS[ATNO][  9].d[  6] =        -0.126182040049;

  // Basis function  11 L = d
  InitBFNGauss(BAS[ATNO][ 10]);
  BAS[ATNO][ 10].l  = 2;
  BAS[ATNO][ 10].ng = 7;
  BAS[ATNO][ 10].a[  0] =       186.590000000000;     BAS[ATNO][ 10].d[  0] =        -0.000800425264;
  BAS[ATNO][ 10].a[  1] =        54.949000000000;     BAS[ATNO][ 10].d[  1] =        -0.005725425657;
  BAS[ATNO][ 10].a[  2] =        20.191000000000;     BAS[ATNO][ 10].d[  2] =        -0.019717417197;
  BAS[ATNO][ 10].a[  3] =         8.080600000000;     BAS[ATNO][ 10].d[  3] =        -0.036868726634;
  BAS[ATNO][ 10].a[  4] =         3.205200000000;     BAS[ATNO][ 10].d[  4] =        -0.038530146553;
  BAS[ATNO][ 10].a[  5] =         1.177800000000;     BAS[ATNO][ 10].d[  5] =        -0.016617281605;
  BAS[ATNO][ 10].a[  6] =         0.393000000000;     BAS[ATNO][ 10].d[  6] =         1.015412170829;

-------
TIMINGS
-------

Total SCF time: 0 days 0 hours 0 min 1 sec 

Total time                  ....       1.991 sec
Sum of individual times     ....       1.811 sec  ( 91.0%)

Fock matrix formation       ....       1.089 sec  ( 54.7%)
  XC integration            ....       0.019 sec  (  1.8% of F)
    Basis function eval.    ....       0.006 sec  ( 31.6% of XC)
    Density eval.           ....       0.001 sec  (  4.6% of XC)
    XC-Functional eval.     ....       0.002 sec  (  8.1% of XC)
    XC-Potential eval.      ....       0.001 sec  (  3.3% of XC)
Diagonalization             ....       0.000 sec  (  0.0%)
Density matrix formation    ....       0.000 sec  (  0.0%)
Population analysis         ....       0.001 sec  (  0.0%)
Initial guess               ....       0.071 sec  (  3.5%)
Orbital Transformation      ....       0.000 sec  (  0.0%)
Orbital Orthonormalization  ....       0.000 sec  (  0.0%)
DIIS solution               ....       0.000 sec  (  0.0%)
SOSCF solution              ....       0.000 sec  (  0.0%)
Grid generation             ....       0.649 sec  ( 32.6%)

-------------------------   --------------------
FINAL SINGLE POINT ENERGY     -1270.669396726976
-------------------------   --------------------


                            ***************************************
                            *     ORCA property calculations      *
                            ***************************************

                                    ---------------------
                                    Active property flags
                                    ---------------------
   (+) Dipole Moment


------------------------------------------------------------------------------
                       ORCA ELECTRIC PROPERTIES CALCULATION
------------------------------------------------------------------------------

Dipole Moment Calculation                       ... on
Quadrupole Moment Calculation                   ... off
Polarizability Calculation                      ... off
GBWName                                         ... Kr_pc-1_4385.151648_.gbw
Electron density file                           ... Kr_pc-1_4385.151648_.scfp
The origin for moment calculation is the CENTER OF MASS  = ( 0.000000,  0.000000  0.000000)

-------------
DIPOLE MOMENT
-------------
                                X             Y             Z
Electronic contribution:      0.00000      -0.00000       0.00000
Nuclear contribution   :      0.00000       0.00000       0.00000
                        -----------------------------------------
Total Dipole Moment    :      0.00000      -0.00000       0.00000
                        -----------------------------------------
Magnitude (a.u.)       :      0.00000
Magnitude (Debye)      :      0.00000



--------------------
Rotational spectrum 
--------------------
 
Rotational constants in cm-1:     0.000000     0.000000     0.000000 
Rotational constants in MHz :     0.000000     0.000000     0.000000 

 Dipole components along the rotational axes: 
x,y,z [a.u.] :     0.000000    -0.000000     0.000000 
x,y,z [Debye]:     0.000000    -0.000000     0.000000 

 

Timings for individual modules:

Sum of individual times         ...        3.300 sec (=   0.055 min)
GTO integral calculation        ...        0.597 sec (=   0.010 min)  18.1 %
Relativistic integrals          ...        0.470 sec (=   0.008 min)  14.2 %
SCF iterations                  ...        2.233 sec (=   0.037 min)  67.7 %
                             ****ORCA TERMINATED NORMALLY****
TOTAL RUN TIME: 0 days 0 hours 0 minutes 3 seconds 627 msec
