
                                 *****************
                                 * O   R   C   A *
                                 *****************

           --- An Ab Initio, DFT and Semiempirical electronic structure package ---

                  #######################################################
                  #                        -***-                        #
                  #          Department of theory and spectroscopy      #
                  #               Directorship: Frank Neese             #
                  #        Max Planck Institute fuer Kohlenforschung    #
                  #                Kaiser Wilhelm Platz 1               #
                  #                 D-45470 Muelheim/Ruhr               #
                  #                      Germany                        #
                  #                                                     #
                  #                  All rights reserved                #
                  #                        -***-                        #
                  #######################################################


                         Program Version 4.2.1 -  RELEASE  -


 With contributions from (in alphabetic order):
   Daniel Aravena         : Magnetic Suceptibility
   Michael Atanasov       : Ab Initio Ligand Field Theory (pilot matlab implementation)
   Alexander A. Auer      : GIAO ZORA, VPT2
   Ute Becker             : Parallelization
   Giovanni Bistoni       : ED, misc. LED, open-shell LED, HFLD
   Martin Brehm           : Molecular dynamics
   Dmytro Bykov           : SCF Hessian
   Vijay G. Chilkuri      : MRCI spin determinant printing, contributions to CSF-ICE
   Dipayan Datta          : RHF DLPNO-CCSD density
   Achintya Kumar Dutta   : EOM-CC, STEOM-CC
   Dmitry Ganyushin       : Spin-Orbit,Spin-Spin,Magnetic field MRCI
   Miquel Garcia          : C-PCM Hessian, Gaussian charge scheme
   Yang Guo               : DLPNO-NEVPT2, CIM, IAO-localization
   Andreas Hansen         : Spin unrestricted coupled pair/coupled cluster methods
   Benjamin Helmich-Paris : CASSCF linear response (MC-RPA)
   Lee Huntington         : MR-EOM, pCC
   Robert Izsak           : Overlap fitted RIJCOSX, COSX-SCS-MP3, EOM
   Christian Kollmar      : KDIIS, OOCD, Brueckner-CCSD(T), CCSD density
   Simone Kossmann        : Meta GGA functionals, TD-DFT gradient, OOMP2, MP2 Hessian
   Martin Krupicka        : AUTO-CI
   Lucas Lang             : DCDCAS
   Dagmar Lenk            : GEPOL surface, SMD
   Dimitrios Liakos       : Extrapolation schemes; Compound Job, initial MDCI parallelization
   Dimitrios Manganas     : Further ROCIS development; embedding schemes
   Dimitrios Pantazis     : SARC Basis sets
   Taras Petrenko         : DFT Hessian,TD-DFT gradient, ASA, ECA, R-Raman, ABS, FL, XAS/XES, NRVS
   Peter Pinski           : DLPNO-MP2, DLPNO-MP2 Gradient
   Christoph Reimann      : Effective Core Potentials
   Marius Retegan         : Local ZFS, SOC
   Christoph Riplinger    : Optimizer, TS searches, QM/MM, DLPNO-CCSD(T), (RO)-DLPNO pert. Triples
   Tobias Risthaus        : Range-separated hybrids, TD-DFT gradient, RPA, STAB
   Michael Roemelt        : Original ROCIS implementation
   Masaaki Saitow         : Open-shell DLPNO-CCSD energy and density
   Barbara Sandhoefer     : DKH picture change effects
   Avijit Sen             : IP-ROCIS
   Kantharuban Sivalingam : CASSCF convergence, NEVPT2, FIC-MRCI
   Bernardo de Souza      : ESD, SOC TD-DFT
   Georgi Stoychev        : AutoAux, RI-MP2 NMR
   Willem Van den Heuvel  : Paramagnetic NMR
   Boris Wezisla          : Elementary symmetry handling
   Frank Wennmohs         : Technical directorship


 We gratefully acknowledge several colleagues who have allowed us to
 interface, adapt or use parts of their codes:
   Stefan Grimme, W. Hujo, H. Kruse,             : VdW corrections, initial TS optimization,
                  C. Bannwarth                     DFT functionals, gCP, sTDA/sTD-DF
   Ed Valeev, F. Pavosevic, A. Kumar             : LibInt (2-el integral package), F12 methods
   Garnet Chan, S. Sharma, J. Yang, R. Olivares  : DMRG
   Ulf Ekstrom                                   : XCFun DFT Library
   Mihaly Kallay                                 : mrcc  (arbitrary order and MRCC methods)
   Andreas Klamt, Michael Diedenhofen            : otool_cosmo (COSMO solvation model)
   Jiri Pittner, Ondrej Demel                    : Mk-CCSD
   Frank Weinhold                                : gennbo (NPA and NBO analysis)
   Christopher J. Cramer and Donald G. Truhlar   : smd solvation model
   Lars Goerigk                                  : TD-DFT with DH, B97 family of functionals
   V. Asgeirsson, H. Jonsson                     : NEB implementation
   FAccTs GmbH                                   : IRC, NEB, NEB-TS, Multilevel, MM, QM/MM, CI optimization
   S Lehtola, MJT Oliveira, MAL Marques          : LibXC Library


 Your calculation uses the libint2 library for the computation of 2-el integrals
 For citations please refer to: http://libint.valeyev.net

 Your ORCA version has been built with support for libXC version: 4.2.3
 For citations please refer to: https://tddft.org/programs/libxc/

 This ORCA versions uses:
   CBLAS   interface :  Fast vector & matrix operations
   LAPACKE interface :  Fast linear algebra routines
   SCALAPACK package :  Parallel linear algebra routines


----- Orbital basis set information -----
Your calculation utilizes the basis: pc-1
   H, C-F              : F. Jensen, J. Chem. Phys. 115, 9113 (2001).
                         F. Jensen, J. Chem. Phys. 116, 7372 (2002).
                         F. Jensen, J. Chem. Phys. 117, 9234 (2002).
   Si-Cl               : F. Jensen, T. Helgaker, J. Chem. Phys. 121, 3463 (2004).
   He-B, Ne-Mg, Al, Ar : F. Jensen, J. Phys. Chem. A 111, 11198 (2007).
   K, Ca, Ga-Kr        : F. Jensen, J. Chem. Phys. 136, 094110 (2012).
   Sc-Zn               : F. Jensen, J. Chem. Phys. 138, 014107 (2013).

================================================================================
                                        WARNINGS
                       Please study these warnings very carefully!
================================================================================


INFO   : the flag for use of LIBINT has been found!

================================================================================
                                       INPUT FILE
================================================================================
NAME = Kr_pc-1_68.5179945_.inp
|  1> ! LDA pc-1 nori grid5 finalgrid6 verytightscf
|  2> %Pal NProcs 18 End
|  3> 
|  4> % REL
|  5>   Method ZORA
|  6>   ModelPot 1, 0, 0, 0
|  7>   velit 68.5179945
|  8> END
|  9> 
| 10> *xyz 34 1
| 11> Kr 0.0 0.0 0.0
| 12> **                         ****END OF INPUT****
================================================================================

                       ****************************
                       * Single Point Calculation *
                       ****************************

---------------------------------
CARTESIAN COORDINATES (ANGSTROEM)
---------------------------------
  Kr     0.000000    0.000000    0.000000

----------------------------
CARTESIAN COORDINATES (A.U.)
----------------------------
  NO LB      ZA    FRAG     MASS         X           Y           Z
   0 Kr   36.0000    0    83.800    0.000000    0.000000    0.000000

--------------------------------
INTERNAL COORDINATES (ANGSTROEM)
--------------------------------
 Kr     0   0   0     0.000000000000     0.00000000     0.00000000

---------------------------
INTERNAL COORDINATES (A.U.)
---------------------------
 Kr     0   0   0     0.000000000000     0.00000000     0.00000000

---------------------
BASIS SET INFORMATION
---------------------
There are 1 groups of distinct atoms

 Group   1 Type Kr  : 45s28p7d contracted to 5s4p2d pattern {111111111/9991/61}

Atom   0Kr   basis set group =>   1


           ************************************************************
           *        Program running with 18 parallel MPI-processes    *
           *              working on a common directory               *
           ************************************************************
------------------------------------------------------------------------------
                           ORCA GTO INTEGRAL CALCULATION
------------------------------------------------------------------------------

                         BASIS SET STATISTICS AND STARTUP INFO

 # of primitive gaussian shells          ...   80
 # of primitive gaussian functions       ...  164
 # of contracted shells                  ...   11
 # of contracted basis functions         ...   27
 Highest angular momentum                ...    2
 Maximum contraction depth               ...   11
 Integral package used                   ... LIBINT
 Integral threshhold            Thresh   ...  1.000e-12
 Primitive cut-off              TCut     ...  1.000e-14


------------------------------ INTEGRAL EVALUATION ----------------------------


 * One electron integrals 
 Pre-screening matrix                    ... done
 Shell pair data                         ... done (   0.000 sec)



           ************************************************************
           *        Program running with 18 parallel MPI-processes    *
           *              working on a common directory               *
           ************************************************************
------------------------------------------------------------------------------
                          ORCA RELATIVISTIC HAMILTONIAN
------------------------------------------------------------------------------

Relativistic Method            ... ZORA(MP)
Treatment of potential         ... Van Wuellen
Nucleus model                  ... Point Nucleus
Speed of light used            ...  68.51799450000000


            *************************************************
            *         ZERO ORDER REGULAR APPROXIMATION      *
            *                     ZORA(MP)                  *
            *            Programmed by FN according to      *
            *                   C. van Wuellen              *
            *       J. Chem. Phys. (1998) vol 109, 392-399  *
            *************************************************

Terms included in model potential: +V(e,N)
Basis function cutoff value   ... 1.000000e-12
Loading the fitted atomic densities  (DKH4)  ... done
Calculating the cutoffs                      ... done
Number of fit functions                      ... 27
Setting up the integration grid ... done


           ************************************************************
           *        Program running with 18 parallel MPI-processes    *
           *              working on a common directory               *
           ************************************************************
-------------------------------------------------------------------------------
                                 ORCA SCF
-------------------------------------------------------------------------------

------------
SCF SETTINGS
------------
Hamiltonian:
 Density Functional     Method          .... DFT(GTOs)
 Exchange Functional    Exchange        .... Slater
   X-Alpha parameter    XAlpha          ....  0.666667
 Correlation Functional Correlation     .... VWN-5
 Gradients option       PostSCFGGA      .... off
   Density functional embedding theory  .... OFF

Relativistic Settings:
 Scalar relativistic method             .... ZORA
 Speed of light used       Velit        ....       68.5179945
Orbital energies will be scaled


General Settings:
 Integral files         IntName         .... Kr_pc-1_68.5179945_
 Hartree-Fock type      HFTyp           .... RHF
 Total Charge           Charge          ....   34
 Multiplicity           Mult            ....    1
 Number of Electrons    NEL             ....    2
 Basis Dimension        Dim             ....   27
 Nuclear Repulsion      ENuc            ....      0.0000000000 Eh

Convergence Acceleration:
 DIIS                   CNVDIIS         .... on
   Start iteration      DIISMaxIt       ....    12
   Startup error        DIISStart       ....  0.200000
   # of expansion vecs  DIISMaxEq       ....     5
   Bias factor          DIISBfac        ....   1.050
   Max. coefficient     DIISMaxC        ....  10.000
 Newton-Raphson         CNVNR           .... off
 SOSCF                  CNVSOSCF        .... on
   Start iteration      SOSCFMaxIt      ....   150
   Startup grad/error   SOSCFStart      ....  0.003300
 Level Shifting         CNVShift        .... on
   Level shift para.    LevelShift      ....    0.2500
   Turn off err/grad.   ShiftErr        ....    0.0010
 Zerner damping         CNVZerner       .... off
 Static damping         CNVDamp         .... on
   Fraction old density DampFac         ....    0.7000
   Max. Damping (<1)    DampMax         ....    0.9800
   Min. Damping (>=0)   DampMin         ....    0.0000
   Turn off err/grad.   DampErr         ....    0.1000
 Fernandez-Rico         CNVRico         .... off

SCF Procedure:
 Maximum # iterations   MaxIter         ....   125
 SCF integral mode      SCFMode         .... Direct
   Integral package                     .... LIBINT
 Reset frequency        DirectResetFreq ....    20
 Integral Threshold     Thresh          ....  1.000e-12 Eh
 Primitive CutOff       TCut            ....  1.000e-14 Eh

Convergence Tolerance:
 Convergence Check Mode ConvCheckMode   .... Total+1el-Energy
 Convergence forced     ConvForced      .... 0
 Energy Change          TolE            ....  1.000e-09 Eh
 1-El. energy change                    ....  1.000e-06 Eh
 Orbital Gradient       TolG            ....  2.000e-06
 Orbital Rotation angle TolX            ....  2.000e-06
 DIIS Error             TolErr          ....  1.000e-08


Diagonalization of the overlap matrix:
Smallest eigenvalue                        ... 7.238e-02
Time for diagonalization                   ...    0.001 sec
Threshold for overlap eigenvalues          ... 1.000e-08
Number of eigenvalues below threshold      ... 0
Time for construction of square roots      ...    0.001 sec
Total time needed                          ...    0.002 sec

-------------------
DFT GRID GENERATION
-------------------

General Integration Accuracy     IntAcc      ...  5.010
Radial Grid Type                 RadialGrid  ... Gauss-Chebyshev
Angular Grid (max. acc.)         AngularGrid ... Lebedev-434
Angular grid pruning method      GridPruning ... 3 (G Style)
Weight generation scheme         WeightScheme... Becke
Basis function cutoff            BFCut       ...    1.0000e-12
Integration weight cutoff        WCut        ...    1.0000e-14
Grids for H and He will be reduced by one unit

# of grid points (after initial pruning)     ...  16106 (   0.0 sec)
# of grid points (after weights+screening)   ...  16106 (   0.0 sec)
Grid point division into batches done        ...    0.2 sec
Reduced shell lists constructed in    0.2 sec

Total number of grid points                  ...    16106
Total number of batches                      ...      252
Average number of points per batch           ...       63
Average number of grid points per atom       ...    16106
Average number of shells per batch           ...     0.00 ( 0.00%)
Average number of basis functions per batch  ...     0.00 ( 0.00%)
Average number of large shells per batch     ...     0.00 ( -nan%)
Average number of large basis fcns per batch ...     0.00 ( -nan%)
Maximum spatial batch extension              ...  17.34, 17.34, 17.34 au
Average spatial batch extension              ...   0.86,  0.87,  0.87 au

Time for grid setup =    0.246 sec

------------------------------
INITIAL GUESS: MODEL POTENTIAL
------------------------------
Loading ZORA relativistic densities                ... done
Calculating cut-offs                               ... done
Setting up the integral package                    ... done
Initializing the effective Hamiltonian             ... done
Starting the Coulomb interaction                   ... done (   0.0 sec)
Reading the grid                                   ... done
Mapping shells                                     ... done
Starting the XC term evaluation                    ... done (   0.0 sec)
  promolecular density results
     # of electrons  =     36.000000565
     EX              =    -91.042004939
     EC              =     -3.295965580
     EX+EC           =    -94.337970520
Transforming the Hamiltonian                       ... done (   0.0 sec)
Diagonalizing the Hamiltonian                      ... done (   0.0 sec)
Back transforming the eigenvectors                 ... done (   0.0 sec)
Now organizing SCF variables                       ... done
                      ------------------
                      INITIAL GUESS DONE (   0.3 sec)
                      ------------------
--------------
SCF ITERATIONS
--------------
ITER       Energy         Delta-E        Max-DP      RMS-DP      [F,P]     Damp
               ***  Starting incremental Fock matrix formation  ***
  0  -1416.4050706094   0.000000000000 0.00197497  0.00007372  3.4314587 0.7000
                      *** Initiating the SOSCF procedure ***
                      *** Re-Reading the Fockian *** 
                      *** Removing any level shift *** 
ITER      Energy       Delta-E        Grad      Rot      Max-DP    RMS-DP
  1  -1416.40851961  -0.0034490013  0.000231  0.000231  0.004608  0.000172
               *** Restarting incremental Fock matrix formation ***
  2  -1416.41655417  -0.0080345565  0.001926  0.000004  0.000007  0.000000
  3  -1416.41655418  -0.0000000154  0.000003  0.000000  0.000000  0.000000
                 **** Energy Check signals convergence ****
              ***Rediagonalizing the Fockian in SOSCF/NRSCF***

               *****************************************************
               *                     SUCCESS                       *
               *           SCF CONVERGED AFTER   4 CYCLES          *
               *****************************************************

Setting up the final grid:

General Integration Accuracy     IntAcc      ...  5.340
Radial Grid Type                 RadialGrid  ... Gauss-Chebyshev
Angular Grid (max. acc.)         AngularGrid ... Lebedev-590
Angular grid pruning method      GridPruning ... 3 (G Style)
Weight generation scheme         WeightScheme... Becke
Basis function cutoff            BFCut       ...    1.0000e-12
Integration weight cutoff        WCut        ...    1.0000e-14
Grids for H and He will be reduced by one unit

# of grid points (after initial pruning)     ...  24180 (   0.0 sec)
# of grid points (after weights+screening)   ...  24180 (   0.0 sec)
Grid point division into batches done        ...    0.4 sec
Reduced shell lists constructed in    0.4 sec

Total number of grid points                  ...    24180
Total number of batches                      ...      378
Average number of points per batch           ...       63
Average number of grid points per atom       ...    24180
Average number of shells per batch           ...     0.00 ( 0.00%)
Average number of basis functions per batch  ...     0.00 ( 0.00%)
Average number of large shells per batch     ...     0.00 ( -nan%)
Average number of large basis fcns per batch ...     0.00 ( -nan%)
Maximum spatial batch extension              ...  17.58, 17.58, 17.58 au
Average spatial batch extension              ...   0.77,  0.77,  0.77 au

Final grid set up in    0.4 sec
Final integration                            ... done (   0.0 sec)
Change in XC energy                          ...     0.000031532
Integrated number of electrons               ...     2.000001834
Previous integrated no of electrons          ...     2.000004788

----------------
TOTAL SCF ENERGY
----------------

Total Energy       :        -1416.41652265 Eh          -38542.65305 eV

Components:
Nuclear Repulsion  :            0.00000000 Eh               0.00000 eV
Electronic Energy  :        -1416.41652265 Eh          -38542.65305 eV
One Electron Energy:        -1442.14496862 Eh          -39242.75966 eV
Two Electron Energy:           25.72844597 Eh             700.10661 eV

Virial components:
Potential Energy   :        -2584.36913613 Eh          -70324.25941 eV
Kinetic Energy     :         1167.95261348 Eh           31781.60636 eV
Virial Ratio       :            2.21273458


DFT components:
N(Alpha)           :        1.000000916881 electrons
N(Beta)            :        1.000000916881 electrons
N(Total)           :        2.000001833763 electrons
E(X)               :      -19.504422293380 Eh       
E(C)               :       -0.279612526941 Eh       
E(XC)              :      -19.784034820321 Eh       
DFET-embed. en.    :        0.000000000000 Eh       

---------------
SCF CONVERGENCE
---------------

  Last Energy change         ...    2.2737e-13  Tolerance :   1.0000e-09
  Last MAX-Density change    ...    0.0000e+00  Tolerance :   1.0000e-08
  Last RMS-Density change    ...    0.0000e+00  Tolerance :   1.0000e-09
  Last Orbital Gradient      ...    4.3581e-11  Tolerance :   2.0000e-06
  Last Orbital Rotation      ...    0.0000e+00  Tolerance :   2.0000e-06

================================================================================
                                        WARNING
Number of found core electrons (2) does not match given number of chemical core electrons (18)
================================================================================
             **** THE GBW FILE WAS UPDATED (Kr_pc-1_68.5179945_.gbw) ****
             **** DENSITY FILE WAS UPDATED (Kr_pc-1_68.5179945_.scfp) ****
             **** ENERGY FILE WAS UPDATED (Kr_pc-1_68.5179945_.en.tmp) ****
             **** THE GBW FILE WAS UPDATED (Kr_pc-1_68.5179945_.gbw) ****
             **** DENSITY FILE WAS UPDATED (Kr_pc-1_68.5179945_.scfp) ****
----------------
ORBITAL ENERGIES
----------------

  NO   OCC          E(Eh)            E(eV) 
   0   2.0000    -688.712626    -18740.8233 
   1   0.0000    -157.905659     -4296.8314 
   2   0.0000    -152.510586     -4150.0240 
   3   0.0000    -152.510586     -4150.0240 
   4   0.0000    -152.510586     -4150.0240 
   5   0.0000     -61.925487     -1685.0782 
   6   0.0000     -59.351615     -1615.0396 
   7   0.0000     -59.351615     -1615.0396 
   8   0.0000     -59.351615     -1615.0396 
   9   0.0000     -54.549532     -1484.3682 
  10   0.0000     -54.549532     -1484.3682 
  11   0.0000     -54.549532     -1484.3682 
  12   0.0000     -54.549532     -1484.3682 
  13   0.0000     -54.549532     -1484.3682 
  14   0.0000     -26.936553      -732.9809 
  15   0.0000     -24.328239      -662.0051 
  16   0.0000     -24.328239      -662.0051 
  17   0.0000     -24.328239      -662.0051 
  18   0.0000     -16.477604      -448.3784 
  19   0.0000     -16.477604      -448.3784 
  20   0.0000     -16.477604      -448.3784 
  21   0.0000     -16.477604      -448.3784 
  22   0.0000     -16.477604      -448.3784 
  23   0.0000     -13.519457      -367.8831 
  24   0.0000     -11.612625      -315.9956 
  25   0.0000     -11.612625      -315.9956 
  26   0.0000     -11.612625      -315.9956 

                    ********************************
                    * MULLIKEN POPULATION ANALYSIS *
                    ********************************

-----------------------
MULLIKEN ATOMIC CHARGES
-----------------------
   0 Kr:   34.000000
Sum of atomic charges:   34.0000000

--------------------------------
MULLIKEN REDUCED ORBITAL CHARGES
--------------------------------
  0 Krs       :     2.000000  s :     2.000000
      pz      :     0.000000  p :     0.000000
      px      :     0.000000
      py      :     0.000000
      dz2     :     0.000000  d :     0.000000
      dxz     :     0.000000
      dyz     :     0.000000
      dx2y2   :     0.000000
      dxy     :     0.000000


                     *******************************
                     * LOEWDIN POPULATION ANALYSIS *
                     *******************************

----------------------
LOEWDIN ATOMIC CHARGES
----------------------
   0 Kr:   34.000000

-------------------------------
LOEWDIN REDUCED ORBITAL CHARGES
-------------------------------
  0 Krs       :     2.000000  s :     2.000000
      pz      :     0.000000  p :     0.000000
      px      :     0.000000
      py      :     0.000000
      dz2     :     0.000000  d :     0.000000
      dxz     :     0.000000
      dyz     :     0.000000
      dx2y2   :     0.000000
      dxy     :     0.000000


                      *****************************
                      * MAYER POPULATION ANALYSIS *
                      *****************************

  NA   - Mulliken gross atomic population
  ZA   - Total nuclear charge
  QA   - Mulliken gross atomic charge
  VA   - Mayer's total valence
  BVA  - Mayer's bonded valence
  FA   - Mayer's free valence

  ATOM       NA         ZA         QA         VA         BVA        FA
  0 Kr     2.0000    36.0000    34.0000     0.0000     0.0000     0.0000

  Mayer bond orders larger than 0.100000


--------------------------
ATOM BASIS FOR ELEMENT Kr
--------------------------
 NewGTO Kr
 S 45
    1     147050.000000000000         0.001332276602
    2      22074.000000000000         0.010241483359
    3       5023.600000000000         0.051244806879
    4       1419.800000000000         0.184180144650
    5        459.470000000000         0.422108532121
    6        160.840000000000         0.424887295030
    7         42.985000000000         0.069570195914
    8         18.685000000000        -0.023320364075
    9          6.044300000000         0.009480935101
   10          2.543200000000        -0.004445170881
   11          0.546630000000         0.001374085512
   12     147050.000000000000         0.000024061043
   13      22074.000000000000         0.000184916915
   14       5023.600000000000         0.000954913972
   15       1419.800000000000         0.003644988799
   16        459.470000000000         0.010446419437
   17        160.840000000000         0.015323487543
   18         42.985000000000        -0.018166553602
   19         18.685000000000        -0.042007477228
   20          6.044300000000        -0.007428434243
   21          2.543200000000         0.001339618449
   22          0.546630000000        -0.000324827018
   23     147050.000000000000         0.000001497453
   24      22074.000000000000         0.000011514967
   25       5023.600000000000         0.000059653518
   26       1419.800000000000         0.000229783866
   27        459.470000000000         0.000677009161
   28        160.840000000000         0.001064443265
   29         42.985000000000        -0.001731623298
   30         18.685000000000        -0.005594438329
   31          6.044300000000         0.002644099290
   32          2.543200000000         0.008004175364
   33          0.546630000000         0.000735791824
   34     147050.000000000000         0.000001706949
   35      22074.000000000000         0.000013122581
   36       5023.600000000000         0.000068051622
   37       1419.800000000000         0.000262299204
   38        459.470000000000         0.000776807422
   39        160.840000000000         0.001232199628
   40         42.985000000000        -0.002089827639
   41         18.685000000000        -0.007275377273
   42          6.044300000000         0.004540585324
   43          2.543200000000         0.019052472826
   44          0.546630000000        -0.017063775712
   45          0.215330000000         0.006094629463
 S 45
    1     147050.000000000000        -0.000078154204
    2      22074.000000000000        -0.000600787388
    3       5023.600000000000        -0.003006130321
    4       1419.800000000000        -0.010804402457
    5        459.470000000000        -0.024761792159
    6        160.840000000000        -0.024924800354
    7         42.985000000000        -0.004081136960
    8         18.685000000000         0.001368022592
    9          6.044300000000        -0.000556171995
   10          2.543200000000         0.000260763261
   11          0.546630000000        -0.000080606804
   12     147050.000000000000         0.000422102756
   13      22074.000000000000         0.003243996531
   14       5023.600000000000         0.016752051146
   15       1419.800000000000         0.063944020674
   16        459.470000000000         0.183261485089
   17        160.840000000000         0.268819867021
   18         42.985000000000        -0.318695760984
   19         18.685000000000        -0.736936967544
   20          6.044300000000        -0.130316985593
   21          2.543200000000         0.023500919895
   22          0.546630000000        -0.005698438795
   23     147050.000000000000         0.000009224069
   24      22074.000000000000         0.000070930332
   25       5023.600000000000         0.000367456020
   26       1419.800000000000         0.001415431437
   27        459.470000000000         0.004170266889
   28        160.840000000000         0.006556798284
   29         42.985000000000        -0.010666519339
   30         18.685000000000        -0.034460834921
   31          6.044300000000         0.016287223807
   32          2.543200000000         0.049304425160
   33          0.546630000000         0.004532358587
   34     147050.000000000000         0.000008136162
   35      22074.000000000000         0.000062548699
   36       5023.600000000000         0.000324367622
   37       1419.800000000000         0.001250247474
   38        459.470000000000         0.003702647599
   39        160.840000000000         0.005873271627
   40         42.985000000000        -0.009961150049
   41         18.685000000000        -0.034678039145
   42          6.044300000000         0.021642670845
   43          2.543200000000         0.090813489616
   44          0.546630000000        -0.081334377570
   45          0.215330000000         0.034752513724
 S 45
    1     147050.000000000000        -0.000032770903
    2      22074.000000000000        -0.000251916647
    3       5023.600000000000        -0.001260502943
    4       1419.800000000000        -0.004530402758
    5        459.470000000000        -0.010382887156
    6        160.840000000000        -0.010451238254
    7         42.985000000000        -0.001711264849
    8         18.685000000000         0.000573626663
    9          6.044300000000        -0.000233208930
   10          2.543200000000         0.000109340855
   11          0.546630000000        -0.000033799305
   12     147050.000000000000        -0.000018141164
   13      22074.000000000000        -0.000139420728
   14       5023.600000000000        -0.000719970918
   15       1419.800000000000        -0.002748190944
   16        459.470000000000        -0.007876225930
   17        160.840000000000        -0.011553360523
   18         42.985000000000         0.013696930456
   19         18.685000000000         0.031672132581
   20          6.044300000000         0.005600773237
   21          2.543200000000        -0.001010024308
   22          0.546630000000         0.000244907932
   23     147050.000000000000         0.000119079814
   24      22074.000000000000         0.000915688154
   25       5023.600000000000         0.004743740996
   26       1419.800000000000         0.018272772183
   27        459.470000000000         0.053836826557
   28        160.840000000000         0.084646192056
   29         42.985000000000        -0.137701391045
   30         18.685000000000        -0.444878479508
   31          6.044300000000         0.210262908005
   32          2.543200000000         0.636504534736
   33          0.546630000000         0.058511315860
   34     147050.000000000000         0.000043881688
   35      22074.000000000000         0.000337351010
   36       5023.600000000000         0.001749448776
   37       1419.800000000000         0.006743101850
   38        459.470000000000         0.019969910268
   39        160.840000000000         0.031676983633
   40         42.985000000000        -0.053724603098
   41         18.685000000000        -0.187033011258
   42          6.044300000000         0.116727877345
   43          2.543200000000         0.489794718636
   44          0.546630000000        -0.438669945905
   45          0.215330000000         0.155354956144
 S 45
    1     147050.000000000000         0.000057867050
    2      22074.000000000000         0.000444835873
    3       5023.600000000000         0.002225803390
    4       1419.800000000000         0.007999811403
    5        459.470000000000         0.018334162214
    6        160.840000000000         0.018454856979
    7         42.985000000000         0.003021761372
    8         18.685000000000        -0.001012913280
    9          6.044300000000         0.000411801679
   10          2.543200000000        -0.000193074714
   11          0.546630000000         0.000059683007
   12     147050.000000000000        -0.000107247686
   13      22074.000000000000        -0.000824233239
   14       5023.600000000000        -0.004256353929
   15       1419.800000000000        -0.016246869188
   16        459.470000000000        -0.046562999074
   17        160.840000000000        -0.068301635846
   18         42.985000000000         0.080974081468
   19         18.685000000000         0.187240626804
   20          6.044300000000         0.033110883482
   21          2.543200000000        -0.005971103589
   22          0.546630000000         0.001447856871
   23     147050.000000000000         0.000214652609
   24      22074.000000000000         0.001650614354
   25       5023.600000000000         0.008551041038
   26       1419.800000000000         0.032938397130
   27        459.470000000000         0.097045963008
   28        160.840000000000         0.152582753265
   29         42.985000000000        -0.248219758781
   30         18.685000000000        -0.801935463633
   31          6.044300000000         0.379018744179
   32          2.543200000000         1.147359521036
   33          0.546630000000         0.105472171331
   34     147050.000000000000        -0.000182649783
   35      22074.000000000000        -0.001404164040
   36       5023.600000000000        -0.007281771760
   37       1419.800000000000        -0.028066971323
   38        459.470000000000        -0.083121226884
   39        160.840000000000        -0.131849853515
   40         42.985000000000         0.223619178223
   41         18.685000000000         0.778491898805
   42          6.044300000000        -0.485859187459
   43          2.543200000000        -2.038684069568
   44          0.546630000000         1.825886226386
   45          0.215330000000        -0.606736077979
 S 45
    1     147050.000000000000         0.000082863386
    2      22074.000000000000         0.000636987838
    3       5023.600000000000         0.003187264737
    4       1419.800000000000         0.011455421846
    5        459.470000000000         0.026253814218
    6        160.840000000000         0.026426644473
    7         42.985000000000         0.004327045913
    8         18.685000000000        -0.001450452809
    9          6.044300000000         0.000589684145
   10          2.543200000000        -0.000276475554
   11          0.546630000000         0.000085463768
   12     147050.000000000000        -0.000173170210
   13      22074.000000000000        -0.001330869204
   14       5023.600000000000        -0.006872630338
   15       1419.800000000000        -0.026233421363
   16        459.470000000000        -0.075184133049
   17        160.840000000000        -0.110284976892
   18         42.985000000000         0.130746864156
   19         18.685000000000         0.302332849642
   20          6.044300000000         0.053463331799
   21          2.543200000000        -0.009641394575
   22          0.546630000000         0.002337818993
   23     147050.000000000000         0.000276451135
   24      22074.000000000000         0.002125826535
   25       5023.600000000000         0.011012887349
   26       1419.800000000000         0.042421367811
   27        459.470000000000         0.124985513870
   28        160.840000000000         0.196511356406
   29         42.985000000000        -0.319682273660
   30         18.685000000000        -1.032812833280
   31          6.044300000000         0.488138311366
   32          2.543200000000         1.477684541277
   33          0.546630000000         0.135837629141
   34     147050.000000000000        -0.000175230859
   35      22074.000000000000        -0.001347129284
   36       5023.600000000000        -0.006985998571
   37       1419.800000000000        -0.026926938664
   38        459.470000000000        -0.079744983964
   39        160.840000000000        -0.126494336625
   40         42.985000000000         0.214536147381
   41         18.685000000000         0.746870881401
   42          6.044300000000        -0.466124413281
   43          2.543200000000        -1.955876188657
   44          0.546630000000         1.751721832085
   45          0.215330000000        -2.100146561925
 P 28
    1       3021.600000000000         0.002984803566
    2        714.730000000000         0.024427591707
    3        230.160000000000         0.112726374113
    4         86.130000000000         0.318144836051
    5         35.027000000000         0.462258566854
    6         14.876000000000         0.242066321119
    7          5.845500000000         0.018652133173
    8          2.285600000000        -0.000641614891
    9          0.585700000000         0.000071798001
   10       3021.600000000000         0.000105534551
   11        714.730000000000         0.000863504579
   12        230.160000000000         0.004177107287
   13         86.130000000000         0.012359708223
   14         35.027000000000         0.019777688122
   15         14.876000000000        -0.002436482662
   16          5.845500000000        -0.048976494779
   17          2.285600000000        -0.041148091854
   18          0.585700000000        -0.003436190874
   19       3021.600000000000         0.000027612417
   20        714.730000000000         0.000229675488
   21        230.160000000000         0.001097335431
   22         86.130000000000         0.003345986949
   23         35.027000000000         0.005201492913
   24         14.876000000000        -0.000847433019
   25          5.845500000000        -0.018312734409
   26          2.285600000000        -0.010823257338
   27          0.585700000000         0.045209930402
   28          0.170950000000        -0.016692586566
 P 28
    1       3021.600000000000        -0.000286948037
    2        714.730000000000        -0.002348378827
    3        230.160000000000        -0.010837099023
    4         86.130000000000        -0.030585274468
    5         35.027000000000        -0.044439838527
    6         14.876000000000        -0.023271365843
    7          5.845500000000        -0.001793147485
    8          2.285600000000         0.000061682496
    9          0.585700000000        -0.000006902396
   10       3021.600000000000         0.001133139885
   11        714.730000000000         0.009271574770
   12        230.160000000000         0.044850210936
   13         86.130000000000         0.132707992118
   14         35.027000000000         0.212355925570
   15         14.876000000000        -0.026160870153
   16          5.845500000000        -0.525867776659
   17          2.285600000000        -0.441813071238
   18          0.585700000000        -0.036894883210
   19       3021.600000000000         0.000169447532
   20        714.730000000000         0.001409436359
   21        230.160000000000         0.006733955219
   22         86.130000000000         0.020533125648
   23         35.027000000000         0.031919702365
   24         14.876000000000        -0.005200393466
   25          5.845500000000        -0.112378703891
   26          2.285600000000        -0.066418460750
   27          0.585700000000         0.277437179407
   28          0.170950000000        -0.086741978779
 P 28
    1       3021.600000000000         0.000009717163
    2        714.730000000000         0.000079525127
    3        230.160000000000         0.000366985797
    4         86.130000000000         0.001035734867
    5         35.027000000000         0.001504903620
    6         14.876000000000         0.000788057830
    7          5.845500000000         0.000060722861
    8          2.285600000000        -0.000002088806
    9          0.585700000000         0.000000233742
   10       3021.600000000000        -0.000528380682
   11        714.730000000000        -0.004323315299
   12        230.160000000000        -0.020913556530
   13         86.130000000000        -0.061881450215
   14         35.027000000000        -0.099021109628
   15         14.876000000000         0.012198757273
   16          5.845500000000         0.245211008936
   17          2.285600000000         0.206016481267
   18          0.585700000000         0.017204004387
   19       3021.600000000000         0.000751649444
   20        714.730000000000         0.006252094943
   21        230.160000000000         0.029871038240
   22         86.130000000000         0.091082545325
   23         35.027000000000         0.141592068703
   24         14.876000000000        -0.023068337557
   25          5.845500000000        -0.498498794881
   26          2.285600000000        -0.294624528452
   27          0.585700000000         1.230678899129
   28          0.170950000000        -0.304853731284
 P 28
    1       3021.600000000000         0.000048970132
    2        714.730000000000         0.000400770897
    3        230.160000000000         0.001849443474
    4         86.130000000000         0.005219638221
    5         35.027000000000         0.007584037865
    6         14.876000000000         0.003971457269
    7          5.845500000000         0.000306015928
    8          2.285600000000        -0.000010526645
    9          0.585700000000         0.000001177953
   10       3021.600000000000        -0.000360265908
   11        714.730000000000        -0.002947766951
   12        230.160000000000        -0.014259494509
   13         86.130000000000        -0.042192641806
   14         35.027000000000        -0.067515583350
   15         14.876000000000         0.008317481156
   16          5.845500000000         0.167192272176
   17          2.285600000000         0.140468259391
   18          0.585700000000         0.011730209816
   19       3021.600000000000         0.000379208477
   20        714.730000000000         0.003154192981
   21        230.160000000000         0.015069991737
   22         86.130000000000         0.045951305557
   23         35.027000000000         0.071433449627
   24         14.876000000000        -0.011638017185
   25          5.845500000000        -0.251493525589
   26          2.285600000000        -0.148638596816
   27          0.585700000000         0.620879685946
   28          0.170950000000        -1.282735690396
 D 7
    1        186.590000000000         0.008887846496
    2         54.949000000000         0.063574585442
    3         20.191000000000         0.218940337251
    4          8.080600000000         0.409386856429
    5          3.205200000000         0.427835106209
    6          1.177800000000         0.184516724606
    7          0.393000000000        -0.126967744903
 D 7
    1        186.590000000000         0.000793547940
    2         54.949000000000         0.005676232297
    3         20.191000000000         0.019548003417
    4          8.080600000000         0.036551947297
    5          3.205200000000         0.038199092150
    6          1.177800000000         0.016474504463
    7          0.393000000000        -1.015314225081
 end
  // -----------------------------------------------
  // The basis set
  // -----------------------------------------------
  BAS[ATNO] = new BFNGauss[NSH];
  // Basis function   1 L = s
  InitBFNGauss(BAS[ATNO][  0]);
  BAS[ATNO][  0].l  = 0;
  BAS[ATNO][  0].ng = 45;
  BAS[ATNO][  0].a[  0] =    147050.000000000000;     BAS[ATNO][  0].d[  0] =         0.001332276602;
  BAS[ATNO][  0].a[  1] =     22074.000000000000;     BAS[ATNO][  0].d[  1] =         0.010241483359;
  BAS[ATNO][  0].a[  2] =      5023.600000000000;     BAS[ATNO][  0].d[  2] =         0.051244806879;
  BAS[ATNO][  0].a[  3] =      1419.800000000000;     BAS[ATNO][  0].d[  3] =         0.184180144650;
  BAS[ATNO][  0].a[  4] =       459.470000000000;     BAS[ATNO][  0].d[  4] =         0.422108532121;
  BAS[ATNO][  0].a[  5] =       160.840000000000;     BAS[ATNO][  0].d[  5] =         0.424887295030;
  BAS[ATNO][  0].a[  6] =        42.985000000000;     BAS[ATNO][  0].d[  6] =         0.069570195914;
  BAS[ATNO][  0].a[  7] =        18.685000000000;     BAS[ATNO][  0].d[  7] =        -0.023320364075;
  BAS[ATNO][  0].a[  8] =         6.044300000000;     BAS[ATNO][  0].d[  8] =         0.009480935101;
  BAS[ATNO][  0].a[  9] =         2.543200000000;     BAS[ATNO][  0].d[  9] =        -0.004445170881;
  BAS[ATNO][  0].a[ 10] =         0.546630000000;     BAS[ATNO][  0].d[ 10] =         0.001374085512;
  BAS[ATNO][  0].a[ 11] =    147050.000000000000;     BAS[ATNO][  0].d[ 11] =         0.000024061043;
  BAS[ATNO][  0].a[ 12] =     22074.000000000000;     BAS[ATNO][  0].d[ 12] =         0.000184916915;
  BAS[ATNO][  0].a[ 13] =      5023.600000000000;     BAS[ATNO][  0].d[ 13] =         0.000954913972;
  BAS[ATNO][  0].a[ 14] =      1419.800000000000;     BAS[ATNO][  0].d[ 14] =         0.003644988799;
  BAS[ATNO][  0].a[ 15] =       459.470000000000;     BAS[ATNO][  0].d[ 15] =         0.010446419437;
  BAS[ATNO][  0].a[ 16] =       160.840000000000;     BAS[ATNO][  0].d[ 16] =         0.015323487543;
  BAS[ATNO][  0].a[ 17] =        42.985000000000;     BAS[ATNO][  0].d[ 17] =        -0.018166553602;
  BAS[ATNO][  0].a[ 18] =        18.685000000000;     BAS[ATNO][  0].d[ 18] =        -0.042007477228;
  BAS[ATNO][  0].a[ 19] =         6.044300000000;     BAS[ATNO][  0].d[ 19] =        -0.007428434243;
  BAS[ATNO][  0].a[ 20] =         2.543200000000;     BAS[ATNO][  0].d[ 20] =         0.001339618449;
  BAS[ATNO][  0].a[ 21] =         0.546630000000;     BAS[ATNO][  0].d[ 21] =        -0.000324827018;
  BAS[ATNO][  0].a[ 22] =    147050.000000000000;     BAS[ATNO][  0].d[ 22] =         0.000001497453;
  BAS[ATNO][  0].a[ 23] =     22074.000000000000;     BAS[ATNO][  0].d[ 23] =         0.000011514967;
  BAS[ATNO][  0].a[ 24] =      5023.600000000000;     BAS[ATNO][  0].d[ 24] =         0.000059653518;
  BAS[ATNO][  0].a[ 25] =      1419.800000000000;     BAS[ATNO][  0].d[ 25] =         0.000229783866;
  BAS[ATNO][  0].a[ 26] =       459.470000000000;     BAS[ATNO][  0].d[ 26] =         0.000677009161;
  BAS[ATNO][  0].a[ 27] =       160.840000000000;     BAS[ATNO][  0].d[ 27] =         0.001064443265;
  BAS[ATNO][  0].a[ 28] =        42.985000000000;     BAS[ATNO][  0].d[ 28] =        -0.001731623298;
  BAS[ATNO][  0].a[ 29] =        18.685000000000;     BAS[ATNO][  0].d[ 29] =        -0.005594438329;
  BAS[ATNO][  0].a[ 30] =         6.044300000000;     BAS[ATNO][  0].d[ 30] =         0.002644099290;
  BAS[ATNO][  0].a[ 31] =         2.543200000000;     BAS[ATNO][  0].d[ 31] =         0.008004175364;
  BAS[ATNO][  0].a[ 32] =         0.546630000000;     BAS[ATNO][  0].d[ 32] =         0.000735791824;
  BAS[ATNO][  0].a[ 33] =    147050.000000000000;     BAS[ATNO][  0].d[ 33] =         0.000001706949;
  BAS[ATNO][  0].a[ 34] =     22074.000000000000;     BAS[ATNO][  0].d[ 34] =         0.000013122581;
  BAS[ATNO][  0].a[ 35] =      5023.600000000000;     BAS[ATNO][  0].d[ 35] =         0.000068051622;
  BAS[ATNO][  0].a[ 36] =      1419.800000000000;     BAS[ATNO][  0].d[ 36] =         0.000262299204;
  BAS[ATNO][  0].a[ 37] =       459.470000000000;     BAS[ATNO][  0].d[ 37] =         0.000776807422;
  BAS[ATNO][  0].a[ 38] =       160.840000000000;     BAS[ATNO][  0].d[ 38] =         0.001232199628;
  BAS[ATNO][  0].a[ 39] =        42.985000000000;     BAS[ATNO][  0].d[ 39] =        -0.002089827639;
  BAS[ATNO][  0].a[ 40] =        18.685000000000;     BAS[ATNO][  0].d[ 40] =        -0.007275377273;
  BAS[ATNO][  0].a[ 41] =         6.044300000000;     BAS[ATNO][  0].d[ 41] =         0.004540585324;
  BAS[ATNO][  0].a[ 42] =         2.543200000000;     BAS[ATNO][  0].d[ 42] =         0.019052472826;
  BAS[ATNO][  0].a[ 43] =         0.546630000000;     BAS[ATNO][  0].d[ 43] =        -0.017063775712;
  BAS[ATNO][  0].a[ 44] =         0.215330000000;     BAS[ATNO][  0].d[ 44] =         0.006094629463;

  // Basis function   2 L = s
  InitBFNGauss(BAS[ATNO][  1]);
  BAS[ATNO][  1].l  = 0;
  BAS[ATNO][  1].ng = 45;
  BAS[ATNO][  1].a[  0] =    147050.000000000000;     BAS[ATNO][  1].d[  0] =         0.000078154204;
  BAS[ATNO][  1].a[  1] =     22074.000000000000;     BAS[ATNO][  1].d[  1] =         0.000600787388;
  BAS[ATNO][  1].a[  2] =      5023.600000000000;     BAS[ATNO][  1].d[  2] =         0.003006130321;
  BAS[ATNO][  1].a[  3] =      1419.800000000000;     BAS[ATNO][  1].d[  3] =         0.010804402457;
  BAS[ATNO][  1].a[  4] =       459.470000000000;     BAS[ATNO][  1].d[  4] =         0.024761792159;
  BAS[ATNO][  1].a[  5] =       160.840000000000;     BAS[ATNO][  1].d[  5] =         0.024924800354;
  BAS[ATNO][  1].a[  6] =        42.985000000000;     BAS[ATNO][  1].d[  6] =         0.004081136960;
  BAS[ATNO][  1].a[  7] =        18.685000000000;     BAS[ATNO][  1].d[  7] =        -0.001368022592;
  BAS[ATNO][  1].a[  8] =         6.044300000000;     BAS[ATNO][  1].d[  8] =         0.000556171995;
  BAS[ATNO][  1].a[  9] =         2.543200000000;     BAS[ATNO][  1].d[  9] =        -0.000260763261;
  BAS[ATNO][  1].a[ 10] =         0.546630000000;     BAS[ATNO][  1].d[ 10] =         0.000080606804;
  BAS[ATNO][  1].a[ 11] =    147050.000000000000;     BAS[ATNO][  1].d[ 11] =        -0.000422102756;
  BAS[ATNO][  1].a[ 12] =     22074.000000000000;     BAS[ATNO][  1].d[ 12] =        -0.003243996531;
  BAS[ATNO][  1].a[ 13] =      5023.600000000000;     BAS[ATNO][  1].d[ 13] =        -0.016752051146;
  BAS[ATNO][  1].a[ 14] =      1419.800000000000;     BAS[ATNO][  1].d[ 14] =        -0.063944020674;
  BAS[ATNO][  1].a[ 15] =       459.470000000000;     BAS[ATNO][  1].d[ 15] =        -0.183261485089;
  BAS[ATNO][  1].a[ 16] =       160.840000000000;     BAS[ATNO][  1].d[ 16] =        -0.268819867021;
  BAS[ATNO][  1].a[ 17] =        42.985000000000;     BAS[ATNO][  1].d[ 17] =         0.318695760984;
  BAS[ATNO][  1].a[ 18] =        18.685000000000;     BAS[ATNO][  1].d[ 18] =         0.736936967544;
  BAS[ATNO][  1].a[ 19] =         6.044300000000;     BAS[ATNO][  1].d[ 19] =         0.130316985593;
  BAS[ATNO][  1].a[ 20] =         2.543200000000;     BAS[ATNO][  1].d[ 20] =        -0.023500919895;
  BAS[ATNO][  1].a[ 21] =         0.546630000000;     BAS[ATNO][  1].d[ 21] =         0.005698438795;
  BAS[ATNO][  1].a[ 22] =    147050.000000000000;     BAS[ATNO][  1].d[ 22] =        -0.000009224069;
  BAS[ATNO][  1].a[ 23] =     22074.000000000000;     BAS[ATNO][  1].d[ 23] =        -0.000070930332;
  BAS[ATNO][  1].a[ 24] =      5023.600000000000;     BAS[ATNO][  1].d[ 24] =        -0.000367456020;
  BAS[ATNO][  1].a[ 25] =      1419.800000000000;     BAS[ATNO][  1].d[ 25] =        -0.001415431437;
  BAS[ATNO][  1].a[ 26] =       459.470000000000;     BAS[ATNO][  1].d[ 26] =        -0.004170266889;
  BAS[ATNO][  1].a[ 27] =       160.840000000000;     BAS[ATNO][  1].d[ 27] =        -0.006556798284;
  BAS[ATNO][  1].a[ 28] =        42.985000000000;     BAS[ATNO][  1].d[ 28] =         0.010666519339;
  BAS[ATNO][  1].a[ 29] =        18.685000000000;     BAS[ATNO][  1].d[ 29] =         0.034460834921;
  BAS[ATNO][  1].a[ 30] =         6.044300000000;     BAS[ATNO][  1].d[ 30] =        -0.016287223807;
  BAS[ATNO][  1].a[ 31] =         2.543200000000;     BAS[ATNO][  1].d[ 31] =        -0.049304425160;
  BAS[ATNO][  1].a[ 32] =         0.546630000000;     BAS[ATNO][  1].d[ 32] =        -0.004532358587;
  BAS[ATNO][  1].a[ 33] =    147050.000000000000;     BAS[ATNO][  1].d[ 33] =        -0.000008136162;
  BAS[ATNO][  1].a[ 34] =     22074.000000000000;     BAS[ATNO][  1].d[ 34] =        -0.000062548699;
  BAS[ATNO][  1].a[ 35] =      5023.600000000000;     BAS[ATNO][  1].d[ 35] =        -0.000324367622;
  BAS[ATNO][  1].a[ 36] =      1419.800000000000;     BAS[ATNO][  1].d[ 36] =        -0.001250247474;
  BAS[ATNO][  1].a[ 37] =       459.470000000000;     BAS[ATNO][  1].d[ 37] =        -0.003702647599;
  BAS[ATNO][  1].a[ 38] =       160.840000000000;     BAS[ATNO][  1].d[ 38] =        -0.005873271627;
  BAS[ATNO][  1].a[ 39] =        42.985000000000;     BAS[ATNO][  1].d[ 39] =         0.009961150049;
  BAS[ATNO][  1].a[ 40] =        18.685000000000;     BAS[ATNO][  1].d[ 40] =         0.034678039145;
  BAS[ATNO][  1].a[ 41] =         6.044300000000;     BAS[ATNO][  1].d[ 41] =        -0.021642670845;
  BAS[ATNO][  1].a[ 42] =         2.543200000000;     BAS[ATNO][  1].d[ 42] =        -0.090813489616;
  BAS[ATNO][  1].a[ 43] =         0.546630000000;     BAS[ATNO][  1].d[ 43] =         0.081334377570;
  BAS[ATNO][  1].a[ 44] =         0.215330000000;     BAS[ATNO][  1].d[ 44] =        -0.034752513724;

  // Basis function   3 L = s
  InitBFNGauss(BAS[ATNO][  2]);
  BAS[ATNO][  2].l  = 0;
  BAS[ATNO][  2].ng = 45;
  BAS[ATNO][  2].a[  0] =    147050.000000000000;     BAS[ATNO][  2].d[  0] =        -0.000032770903;
  BAS[ATNO][  2].a[  1] =     22074.000000000000;     BAS[ATNO][  2].d[  1] =        -0.000251916647;
  BAS[ATNO][  2].a[  2] =      5023.600000000000;     BAS[ATNO][  2].d[  2] =        -0.001260502943;
  BAS[ATNO][  2].a[  3] =      1419.800000000000;     BAS[ATNO][  2].d[  3] =        -0.004530402758;
  BAS[ATNO][  2].a[  4] =       459.470000000000;     BAS[ATNO][  2].d[  4] =        -0.010382887156;
  BAS[ATNO][  2].a[  5] =       160.840000000000;     BAS[ATNO][  2].d[  5] =        -0.010451238254;
  BAS[ATNO][  2].a[  6] =        42.985000000000;     BAS[ATNO][  2].d[  6] =        -0.001711264849;
  BAS[ATNO][  2].a[  7] =        18.685000000000;     BAS[ATNO][  2].d[  7] =         0.000573626663;
  BAS[ATNO][  2].a[  8] =         6.044300000000;     BAS[ATNO][  2].d[  8] =        -0.000233208930;
  BAS[ATNO][  2].a[  9] =         2.543200000000;     BAS[ATNO][  2].d[  9] =         0.000109340855;
  BAS[ATNO][  2].a[ 10] =         0.546630000000;     BAS[ATNO][  2].d[ 10] =        -0.000033799305;
  BAS[ATNO][  2].a[ 11] =    147050.000000000000;     BAS[ATNO][  2].d[ 11] =        -0.000018141164;
  BAS[ATNO][  2].a[ 12] =     22074.000000000000;     BAS[ATNO][  2].d[ 12] =        -0.000139420728;
  BAS[ATNO][  2].a[ 13] =      5023.600000000000;     BAS[ATNO][  2].d[ 13] =        -0.000719970918;
  BAS[ATNO][  2].a[ 14] =      1419.800000000000;     BAS[ATNO][  2].d[ 14] =        -0.002748190944;
  BAS[ATNO][  2].a[ 15] =       459.470000000000;     BAS[ATNO][  2].d[ 15] =        -0.007876225930;
  BAS[ATNO][  2].a[ 16] =       160.840000000000;     BAS[ATNO][  2].d[ 16] =        -0.011553360523;
  BAS[ATNO][  2].a[ 17] =        42.985000000000;     BAS[ATNO][  2].d[ 17] =         0.013696930456;
  BAS[ATNO][  2].a[ 18] =        18.685000000000;     BAS[ATNO][  2].d[ 18] =         0.031672132581;
  BAS[ATNO][  2].a[ 19] =         6.044300000000;     BAS[ATNO][  2].d[ 19] =         0.005600773237;
  BAS[ATNO][  2].a[ 20] =         2.543200000000;     BAS[ATNO][  2].d[ 20] =        -0.001010024308;
  BAS[ATNO][  2].a[ 21] =         0.546630000000;     BAS[ATNO][  2].d[ 21] =         0.000244907932;
  BAS[ATNO][  2].a[ 22] =    147050.000000000000;     BAS[ATNO][  2].d[ 22] =         0.000119079814;
  BAS[ATNO][  2].a[ 23] =     22074.000000000000;     BAS[ATNO][  2].d[ 23] =         0.000915688154;
  BAS[ATNO][  2].a[ 24] =      5023.600000000000;     BAS[ATNO][  2].d[ 24] =         0.004743740996;
  BAS[ATNO][  2].a[ 25] =      1419.800000000000;     BAS[ATNO][  2].d[ 25] =         0.018272772183;
  BAS[ATNO][  2].a[ 26] =       459.470000000000;     BAS[ATNO][  2].d[ 26] =         0.053836826557;
  BAS[ATNO][  2].a[ 27] =       160.840000000000;     BAS[ATNO][  2].d[ 27] =         0.084646192056;
  BAS[ATNO][  2].a[ 28] =        42.985000000000;     BAS[ATNO][  2].d[ 28] =        -0.137701391045;
  BAS[ATNO][  2].a[ 29] =        18.685000000000;     BAS[ATNO][  2].d[ 29] =        -0.444878479508;
  BAS[ATNO][  2].a[ 30] =         6.044300000000;     BAS[ATNO][  2].d[ 30] =         0.210262908005;
  BAS[ATNO][  2].a[ 31] =         2.543200000000;     BAS[ATNO][  2].d[ 31] =         0.636504534736;
  BAS[ATNO][  2].a[ 32] =         0.546630000000;     BAS[ATNO][  2].d[ 32] =         0.058511315860;
  BAS[ATNO][  2].a[ 33] =    147050.000000000000;     BAS[ATNO][  2].d[ 33] =         0.000043881688;
  BAS[ATNO][  2].a[ 34] =     22074.000000000000;     BAS[ATNO][  2].d[ 34] =         0.000337351010;
  BAS[ATNO][  2].a[ 35] =      5023.600000000000;     BAS[ATNO][  2].d[ 35] =         0.001749448776;
  BAS[ATNO][  2].a[ 36] =      1419.800000000000;     BAS[ATNO][  2].d[ 36] =         0.006743101850;
  BAS[ATNO][  2].a[ 37] =       459.470000000000;     BAS[ATNO][  2].d[ 37] =         0.019969910268;
  BAS[ATNO][  2].a[ 38] =       160.840000000000;     BAS[ATNO][  2].d[ 38] =         0.031676983633;
  BAS[ATNO][  2].a[ 39] =        42.985000000000;     BAS[ATNO][  2].d[ 39] =        -0.053724603098;
  BAS[ATNO][  2].a[ 40] =        18.685000000000;     BAS[ATNO][  2].d[ 40] =        -0.187033011258;
  BAS[ATNO][  2].a[ 41] =         6.044300000000;     BAS[ATNO][  2].d[ 41] =         0.116727877345;
  BAS[ATNO][  2].a[ 42] =         2.543200000000;     BAS[ATNO][  2].d[ 42] =         0.489794718636;
  BAS[ATNO][  2].a[ 43] =         0.546630000000;     BAS[ATNO][  2].d[ 43] =        -0.438669945905;
  BAS[ATNO][  2].a[ 44] =         0.215330000000;     BAS[ATNO][  2].d[ 44] =         0.155354956144;

  // Basis function   4 L = s
  InitBFNGauss(BAS[ATNO][  3]);
  BAS[ATNO][  3].l  = 0;
  BAS[ATNO][  3].ng = 45;
  BAS[ATNO][  3].a[  0] =    147050.000000000000;     BAS[ATNO][  3].d[  0] =        -0.000057867050;
  BAS[ATNO][  3].a[  1] =     22074.000000000000;     BAS[ATNO][  3].d[  1] =        -0.000444835873;
  BAS[ATNO][  3].a[  2] =      5023.600000000000;     BAS[ATNO][  3].d[  2] =        -0.002225803390;
  BAS[ATNO][  3].a[  3] =      1419.800000000000;     BAS[ATNO][  3].d[  3] =        -0.007999811403;
  BAS[ATNO][  3].a[  4] =       459.470000000000;     BAS[ATNO][  3].d[  4] =        -0.018334162214;
  BAS[ATNO][  3].a[  5] =       160.840000000000;     BAS[ATNO][  3].d[  5] =        -0.018454856979;
  BAS[ATNO][  3].a[  6] =        42.985000000000;     BAS[ATNO][  3].d[  6] =        -0.003021761372;
  BAS[ATNO][  3].a[  7] =        18.685000000000;     BAS[ATNO][  3].d[  7] =         0.001012913280;
  BAS[ATNO][  3].a[  8] =         6.044300000000;     BAS[ATNO][  3].d[  8] =        -0.000411801679;
  BAS[ATNO][  3].a[  9] =         2.543200000000;     BAS[ATNO][  3].d[  9] =         0.000193074714;
  BAS[ATNO][  3].a[ 10] =         0.546630000000;     BAS[ATNO][  3].d[ 10] =        -0.000059683007;
  BAS[ATNO][  3].a[ 11] =    147050.000000000000;     BAS[ATNO][  3].d[ 11] =         0.000107247686;
  BAS[ATNO][  3].a[ 12] =     22074.000000000000;     BAS[ATNO][  3].d[ 12] =         0.000824233239;
  BAS[ATNO][  3].a[ 13] =      5023.600000000000;     BAS[ATNO][  3].d[ 13] =         0.004256353929;
  BAS[ATNO][  3].a[ 14] =      1419.800000000000;     BAS[ATNO][  3].d[ 14] =         0.016246869188;
  BAS[ATNO][  3].a[ 15] =       459.470000000000;     BAS[ATNO][  3].d[ 15] =         0.046562999074;
  BAS[ATNO][  3].a[ 16] =       160.840000000000;     BAS[ATNO][  3].d[ 16] =         0.068301635846;
  BAS[ATNO][  3].a[ 17] =        42.985000000000;     BAS[ATNO][  3].d[ 17] =        -0.080974081468;
  BAS[ATNO][  3].a[ 18] =        18.685000000000;     BAS[ATNO][  3].d[ 18] =        -0.187240626804;
  BAS[ATNO][  3].a[ 19] =         6.044300000000;     BAS[ATNO][  3].d[ 19] =        -0.033110883482;
  BAS[ATNO][  3].a[ 20] =         2.543200000000;     BAS[ATNO][  3].d[ 20] =         0.005971103589;
  BAS[ATNO][  3].a[ 21] =         0.546630000000;     BAS[ATNO][  3].d[ 21] =        -0.001447856871;
  BAS[ATNO][  3].a[ 22] =    147050.000000000000;     BAS[ATNO][  3].d[ 22] =        -0.000214652609;
  BAS[ATNO][  3].a[ 23] =     22074.000000000000;     BAS[ATNO][  3].d[ 23] =        -0.001650614354;
  BAS[ATNO][  3].a[ 24] =      5023.600000000000;     BAS[ATNO][  3].d[ 24] =        -0.008551041038;
  BAS[ATNO][  3].a[ 25] =      1419.800000000000;     BAS[ATNO][  3].d[ 25] =        -0.032938397130;
  BAS[ATNO][  3].a[ 26] =       459.470000000000;     BAS[ATNO][  3].d[ 26] =        -0.097045963008;
  BAS[ATNO][  3].a[ 27] =       160.840000000000;     BAS[ATNO][  3].d[ 27] =        -0.152582753265;
  BAS[ATNO][  3].a[ 28] =        42.985000000000;     BAS[ATNO][  3].d[ 28] =         0.248219758781;
  BAS[ATNO][  3].a[ 29] =        18.685000000000;     BAS[ATNO][  3].d[ 29] =         0.801935463633;
  BAS[ATNO][  3].a[ 30] =         6.044300000000;     BAS[ATNO][  3].d[ 30] =        -0.379018744179;
  BAS[ATNO][  3].a[ 31] =         2.543200000000;     BAS[ATNO][  3].d[ 31] =        -1.147359521036;
  BAS[ATNO][  3].a[ 32] =         0.546630000000;     BAS[ATNO][  3].d[ 32] =        -0.105472171331;
  BAS[ATNO][  3].a[ 33] =    147050.000000000000;     BAS[ATNO][  3].d[ 33] =         0.000182649783;
  BAS[ATNO][  3].a[ 34] =     22074.000000000000;     BAS[ATNO][  3].d[ 34] =         0.001404164040;
  BAS[ATNO][  3].a[ 35] =      5023.600000000000;     BAS[ATNO][  3].d[ 35] =         0.007281771760;
  BAS[ATNO][  3].a[ 36] =      1419.800000000000;     BAS[ATNO][  3].d[ 36] =         0.028066971323;
  BAS[ATNO][  3].a[ 37] =       459.470000000000;     BAS[ATNO][  3].d[ 37] =         0.083121226884;
  BAS[ATNO][  3].a[ 38] =       160.840000000000;     BAS[ATNO][  3].d[ 38] =         0.131849853515;
  BAS[ATNO][  3].a[ 39] =        42.985000000000;     BAS[ATNO][  3].d[ 39] =        -0.223619178223;
  BAS[ATNO][  3].a[ 40] =        18.685000000000;     BAS[ATNO][  3].d[ 40] =        -0.778491898805;
  BAS[ATNO][  3].a[ 41] =         6.044300000000;     BAS[ATNO][  3].d[ 41] =         0.485859187459;
  BAS[ATNO][  3].a[ 42] =         2.543200000000;     BAS[ATNO][  3].d[ 42] =         2.038684069568;
  BAS[ATNO][  3].a[ 43] =         0.546630000000;     BAS[ATNO][  3].d[ 43] =        -1.825886226386;
  BAS[ATNO][  3].a[ 44] =         0.215330000000;     BAS[ATNO][  3].d[ 44] =         0.606736077979;

  // Basis function   5 L = s
  InitBFNGauss(BAS[ATNO][  4]);
  BAS[ATNO][  4].l  = 0;
  BAS[ATNO][  4].ng = 45;
  BAS[ATNO][  4].a[  0] =    147050.000000000000;     BAS[ATNO][  4].d[  0] =        -0.000082863386;
  BAS[ATNO][  4].a[  1] =     22074.000000000000;     BAS[ATNO][  4].d[  1] =        -0.000636987838;
  BAS[ATNO][  4].a[  2] =      5023.600000000000;     BAS[ATNO][  4].d[  2] =        -0.003187264737;
  BAS[ATNO][  4].a[  3] =      1419.800000000000;     BAS[ATNO][  4].d[  3] =        -0.011455421846;
  BAS[ATNO][  4].a[  4] =       459.470000000000;     BAS[ATNO][  4].d[  4] =        -0.026253814218;
  BAS[ATNO][  4].a[  5] =       160.840000000000;     BAS[ATNO][  4].d[  5] =        -0.026426644473;
  BAS[ATNO][  4].a[  6] =        42.985000000000;     BAS[ATNO][  4].d[  6] =        -0.004327045913;
  BAS[ATNO][  4].a[  7] =        18.685000000000;     BAS[ATNO][  4].d[  7] =         0.001450452809;
  BAS[ATNO][  4].a[  8] =         6.044300000000;     BAS[ATNO][  4].d[  8] =        -0.000589684145;
  BAS[ATNO][  4].a[  9] =         2.543200000000;     BAS[ATNO][  4].d[  9] =         0.000276475554;
  BAS[ATNO][  4].a[ 10] =         0.546630000000;     BAS[ATNO][  4].d[ 10] =        -0.000085463768;
  BAS[ATNO][  4].a[ 11] =    147050.000000000000;     BAS[ATNO][  4].d[ 11] =         0.000173170210;
  BAS[ATNO][  4].a[ 12] =     22074.000000000000;     BAS[ATNO][  4].d[ 12] =         0.001330869204;
  BAS[ATNO][  4].a[ 13] =      5023.600000000000;     BAS[ATNO][  4].d[ 13] =         0.006872630338;
  BAS[ATNO][  4].a[ 14] =      1419.800000000000;     BAS[ATNO][  4].d[ 14] =         0.026233421363;
  BAS[ATNO][  4].a[ 15] =       459.470000000000;     BAS[ATNO][  4].d[ 15] =         0.075184133049;
  BAS[ATNO][  4].a[ 16] =       160.840000000000;     BAS[ATNO][  4].d[ 16] =         0.110284976892;
  BAS[ATNO][  4].a[ 17] =        42.985000000000;     BAS[ATNO][  4].d[ 17] =        -0.130746864156;
  BAS[ATNO][  4].a[ 18] =        18.685000000000;     BAS[ATNO][  4].d[ 18] =        -0.302332849642;
  BAS[ATNO][  4].a[ 19] =         6.044300000000;     BAS[ATNO][  4].d[ 19] =        -0.053463331799;
  BAS[ATNO][  4].a[ 20] =         2.543200000000;     BAS[ATNO][  4].d[ 20] =         0.009641394575;
  BAS[ATNO][  4].a[ 21] =         0.546630000000;     BAS[ATNO][  4].d[ 21] =        -0.002337818993;
  BAS[ATNO][  4].a[ 22] =    147050.000000000000;     BAS[ATNO][  4].d[ 22] =        -0.000276451135;
  BAS[ATNO][  4].a[ 23] =     22074.000000000000;     BAS[ATNO][  4].d[ 23] =        -0.002125826535;
  BAS[ATNO][  4].a[ 24] =      5023.600000000000;     BAS[ATNO][  4].d[ 24] =        -0.011012887349;
  BAS[ATNO][  4].a[ 25] =      1419.800000000000;     BAS[ATNO][  4].d[ 25] =        -0.042421367811;
  BAS[ATNO][  4].a[ 26] =       459.470000000000;     BAS[ATNO][  4].d[ 26] =        -0.124985513870;
  BAS[ATNO][  4].a[ 27] =       160.840000000000;     BAS[ATNO][  4].d[ 27] =        -0.196511356406;
  BAS[ATNO][  4].a[ 28] =        42.985000000000;     BAS[ATNO][  4].d[ 28] =         0.319682273660;
  BAS[ATNO][  4].a[ 29] =        18.685000000000;     BAS[ATNO][  4].d[ 29] =         1.032812833280;
  BAS[ATNO][  4].a[ 30] =         6.044300000000;     BAS[ATNO][  4].d[ 30] =        -0.488138311366;
  BAS[ATNO][  4].a[ 31] =         2.543200000000;     BAS[ATNO][  4].d[ 31] =        -1.477684541277;
  BAS[ATNO][  4].a[ 32] =         0.546630000000;     BAS[ATNO][  4].d[ 32] =        -0.135837629141;
  BAS[ATNO][  4].a[ 33] =    147050.000000000000;     BAS[ATNO][  4].d[ 33] =         0.000175230859;
  BAS[ATNO][  4].a[ 34] =     22074.000000000000;     BAS[ATNO][  4].d[ 34] =         0.001347129284;
  BAS[ATNO][  4].a[ 35] =      5023.600000000000;     BAS[ATNO][  4].d[ 35] =         0.006985998571;
  BAS[ATNO][  4].a[ 36] =      1419.800000000000;     BAS[ATNO][  4].d[ 36] =         0.026926938664;
  BAS[ATNO][  4].a[ 37] =       459.470000000000;     BAS[ATNO][  4].d[ 37] =         0.079744983964;
  BAS[ATNO][  4].a[ 38] =       160.840000000000;     BAS[ATNO][  4].d[ 38] =         0.126494336625;
  BAS[ATNO][  4].a[ 39] =        42.985000000000;     BAS[ATNO][  4].d[ 39] =        -0.214536147381;
  BAS[ATNO][  4].a[ 40] =        18.685000000000;     BAS[ATNO][  4].d[ 40] =        -0.746870881401;
  BAS[ATNO][  4].a[ 41] =         6.044300000000;     BAS[ATNO][  4].d[ 41] =         0.466124413281;
  BAS[ATNO][  4].a[ 42] =         2.543200000000;     BAS[ATNO][  4].d[ 42] =         1.955876188657;
  BAS[ATNO][  4].a[ 43] =         0.546630000000;     BAS[ATNO][  4].d[ 43] =        -1.751721832085;
  BAS[ATNO][  4].a[ 44] =         0.215330000000;     BAS[ATNO][  4].d[ 44] =         2.100146561925;

  // Basis function   6 L = p
  InitBFNGauss(BAS[ATNO][  5]);
  BAS[ATNO][  5].l  = 1;
  BAS[ATNO][  5].ng = 28;
  BAS[ATNO][  5].a[  0] =      3021.600000000000;     BAS[ATNO][  5].d[  0] =         0.002984803566;
  BAS[ATNO][  5].a[  1] =       714.730000000000;     BAS[ATNO][  5].d[  1] =         0.024427591707;
  BAS[ATNO][  5].a[  2] =       230.160000000000;     BAS[ATNO][  5].d[  2] =         0.112726374113;
  BAS[ATNO][  5].a[  3] =        86.130000000000;     BAS[ATNO][  5].d[  3] =         0.318144836051;
  BAS[ATNO][  5].a[  4] =        35.027000000000;     BAS[ATNO][  5].d[  4] =         0.462258566854;
  BAS[ATNO][  5].a[  5] =        14.876000000000;     BAS[ATNO][  5].d[  5] =         0.242066321119;
  BAS[ATNO][  5].a[  6] =         5.845500000000;     BAS[ATNO][  5].d[  6] =         0.018652133173;
  BAS[ATNO][  5].a[  7] =         2.285600000000;     BAS[ATNO][  5].d[  7] =        -0.000641614891;
  BAS[ATNO][  5].a[  8] =         0.585700000000;     BAS[ATNO][  5].d[  8] =         0.000071798001;
  BAS[ATNO][  5].a[  9] =      3021.600000000000;     BAS[ATNO][  5].d[  9] =         0.000105534551;
  BAS[ATNO][  5].a[ 10] =       714.730000000000;     BAS[ATNO][  5].d[ 10] =         0.000863504579;
  BAS[ATNO][  5].a[ 11] =       230.160000000000;     BAS[ATNO][  5].d[ 11] =         0.004177107287;
  BAS[ATNO][  5].a[ 12] =        86.130000000000;     BAS[ATNO][  5].d[ 12] =         0.012359708223;
  BAS[ATNO][  5].a[ 13] =        35.027000000000;     BAS[ATNO][  5].d[ 13] =         0.019777688122;
  BAS[ATNO][  5].a[ 14] =        14.876000000000;     BAS[ATNO][  5].d[ 14] =        -0.002436482662;
  BAS[ATNO][  5].a[ 15] =         5.845500000000;     BAS[ATNO][  5].d[ 15] =        -0.048976494779;
  BAS[ATNO][  5].a[ 16] =         2.285600000000;     BAS[ATNO][  5].d[ 16] =        -0.041148091854;
  BAS[ATNO][  5].a[ 17] =         0.585700000000;     BAS[ATNO][  5].d[ 17] =        -0.003436190874;
  BAS[ATNO][  5].a[ 18] =      3021.600000000000;     BAS[ATNO][  5].d[ 18] =         0.000027612417;
  BAS[ATNO][  5].a[ 19] =       714.730000000000;     BAS[ATNO][  5].d[ 19] =         0.000229675488;
  BAS[ATNO][  5].a[ 20] =       230.160000000000;     BAS[ATNO][  5].d[ 20] =         0.001097335431;
  BAS[ATNO][  5].a[ 21] =        86.130000000000;     BAS[ATNO][  5].d[ 21] =         0.003345986949;
  BAS[ATNO][  5].a[ 22] =        35.027000000000;     BAS[ATNO][  5].d[ 22] =         0.005201492913;
  BAS[ATNO][  5].a[ 23] =        14.876000000000;     BAS[ATNO][  5].d[ 23] =        -0.000847433019;
  BAS[ATNO][  5].a[ 24] =         5.845500000000;     BAS[ATNO][  5].d[ 24] =        -0.018312734409;
  BAS[ATNO][  5].a[ 25] =         2.285600000000;     BAS[ATNO][  5].d[ 25] =        -0.010823257338;
  BAS[ATNO][  5].a[ 26] =         0.585700000000;     BAS[ATNO][  5].d[ 26] =         0.045209930402;
  BAS[ATNO][  5].a[ 27] =         0.170950000000;     BAS[ATNO][  5].d[ 27] =        -0.016692586566;

  // Basis function   7 L = p
  InitBFNGauss(BAS[ATNO][  6]);
  BAS[ATNO][  6].l  = 1;
  BAS[ATNO][  6].ng = 28;
  BAS[ATNO][  6].a[  0] =      3021.600000000000;     BAS[ATNO][  6].d[  0] =         0.000286948037;
  BAS[ATNO][  6].a[  1] =       714.730000000000;     BAS[ATNO][  6].d[  1] =         0.002348378827;
  BAS[ATNO][  6].a[  2] =       230.160000000000;     BAS[ATNO][  6].d[  2] =         0.010837099023;
  BAS[ATNO][  6].a[  3] =        86.130000000000;     BAS[ATNO][  6].d[  3] =         0.030585274468;
  BAS[ATNO][  6].a[  4] =        35.027000000000;     BAS[ATNO][  6].d[  4] =         0.044439838527;
  BAS[ATNO][  6].a[  5] =        14.876000000000;     BAS[ATNO][  6].d[  5] =         0.023271365843;
  BAS[ATNO][  6].a[  6] =         5.845500000000;     BAS[ATNO][  6].d[  6] =         0.001793147485;
  BAS[ATNO][  6].a[  7] =         2.285600000000;     BAS[ATNO][  6].d[  7] =        -0.000061682496;
  BAS[ATNO][  6].a[  8] =         0.585700000000;     BAS[ATNO][  6].d[  8] =         0.000006902396;
  BAS[ATNO][  6].a[  9] =      3021.600000000000;     BAS[ATNO][  6].d[  9] =        -0.001133139885;
  BAS[ATNO][  6].a[ 10] =       714.730000000000;     BAS[ATNO][  6].d[ 10] =        -0.009271574770;
  BAS[ATNO][  6].a[ 11] =       230.160000000000;     BAS[ATNO][  6].d[ 11] =        -0.044850210936;
  BAS[ATNO][  6].a[ 12] =        86.130000000000;     BAS[ATNO][  6].d[ 12] =        -0.132707992118;
  BAS[ATNO][  6].a[ 13] =        35.027000000000;     BAS[ATNO][  6].d[ 13] =        -0.212355925570;
  BAS[ATNO][  6].a[ 14] =        14.876000000000;     BAS[ATNO][  6].d[ 14] =         0.026160870153;
  BAS[ATNO][  6].a[ 15] =         5.845500000000;     BAS[ATNO][  6].d[ 15] =         0.525867776659;
  BAS[ATNO][  6].a[ 16] =         2.285600000000;     BAS[ATNO][  6].d[ 16] =         0.441813071238;
  BAS[ATNO][  6].a[ 17] =         0.585700000000;     BAS[ATNO][  6].d[ 17] =         0.036894883210;
  BAS[ATNO][  6].a[ 18] =      3021.600000000000;     BAS[ATNO][  6].d[ 18] =        -0.000169447532;
  BAS[ATNO][  6].a[ 19] =       714.730000000000;     BAS[ATNO][  6].d[ 19] =        -0.001409436359;
  BAS[ATNO][  6].a[ 20] =       230.160000000000;     BAS[ATNO][  6].d[ 20] =        -0.006733955219;
  BAS[ATNO][  6].a[ 21] =        86.130000000000;     BAS[ATNO][  6].d[ 21] =        -0.020533125648;
  BAS[ATNO][  6].a[ 22] =        35.027000000000;     BAS[ATNO][  6].d[ 22] =        -0.031919702365;
  BAS[ATNO][  6].a[ 23] =        14.876000000000;     BAS[ATNO][  6].d[ 23] =         0.005200393466;
  BAS[ATNO][  6].a[ 24] =         5.845500000000;     BAS[ATNO][  6].d[ 24] =         0.112378703891;
  BAS[ATNO][  6].a[ 25] =         2.285600000000;     BAS[ATNO][  6].d[ 25] =         0.066418460750;
  BAS[ATNO][  6].a[ 26] =         0.585700000000;     BAS[ATNO][  6].d[ 26] =        -0.277437179407;
  BAS[ATNO][  6].a[ 27] =         0.170950000000;     BAS[ATNO][  6].d[ 27] =         0.086741978779;

  // Basis function   8 L = p
  InitBFNGauss(BAS[ATNO][  7]);
  BAS[ATNO][  7].l  = 1;
  BAS[ATNO][  7].ng = 28;
  BAS[ATNO][  7].a[  0] =      3021.600000000000;     BAS[ATNO][  7].d[  0] =         0.000009717163;
  BAS[ATNO][  7].a[  1] =       714.730000000000;     BAS[ATNO][  7].d[  1] =         0.000079525127;
  BAS[ATNO][  7].a[  2] =       230.160000000000;     BAS[ATNO][  7].d[  2] =         0.000366985797;
  BAS[ATNO][  7].a[  3] =        86.130000000000;     BAS[ATNO][  7].d[  3] =         0.001035734867;
  BAS[ATNO][  7].a[  4] =        35.027000000000;     BAS[ATNO][  7].d[  4] =         0.001504903620;
  BAS[ATNO][  7].a[  5] =        14.876000000000;     BAS[ATNO][  7].d[  5] =         0.000788057830;
  BAS[ATNO][  7].a[  6] =         5.845500000000;     BAS[ATNO][  7].d[  6] =         0.000060722861;
  BAS[ATNO][  7].a[  7] =         2.285600000000;     BAS[ATNO][  7].d[  7] =        -0.000002088806;
  BAS[ATNO][  7].a[  8] =         0.585700000000;     BAS[ATNO][  7].d[  8] =         0.000000233742;
  BAS[ATNO][  7].a[  9] =      3021.600000000000;     BAS[ATNO][  7].d[  9] =        -0.000528380682;
  BAS[ATNO][  7].a[ 10] =       714.730000000000;     BAS[ATNO][  7].d[ 10] =        -0.004323315299;
  BAS[ATNO][  7].a[ 11] =       230.160000000000;     BAS[ATNO][  7].d[ 11] =        -0.020913556530;
  BAS[ATNO][  7].a[ 12] =        86.130000000000;     BAS[ATNO][  7].d[ 12] =        -0.061881450215;
  BAS[ATNO][  7].a[ 13] =        35.027000000000;     BAS[ATNO][  7].d[ 13] =        -0.099021109628;
  BAS[ATNO][  7].a[ 14] =        14.876000000000;     BAS[ATNO][  7].d[ 14] =         0.012198757273;
  BAS[ATNO][  7].a[ 15] =         5.845500000000;     BAS[ATNO][  7].d[ 15] =         0.245211008936;
  BAS[ATNO][  7].a[ 16] =         2.285600000000;     BAS[ATNO][  7].d[ 16] =         0.206016481267;
  BAS[ATNO][  7].a[ 17] =         0.585700000000;     BAS[ATNO][  7].d[ 17] =         0.017204004387;
  BAS[ATNO][  7].a[ 18] =      3021.600000000000;     BAS[ATNO][  7].d[ 18] =         0.000751649444;
  BAS[ATNO][  7].a[ 19] =       714.730000000000;     BAS[ATNO][  7].d[ 19] =         0.006252094943;
  BAS[ATNO][  7].a[ 20] =       230.160000000000;     BAS[ATNO][  7].d[ 20] =         0.029871038240;
  BAS[ATNO][  7].a[ 21] =        86.130000000000;     BAS[ATNO][  7].d[ 21] =         0.091082545325;
  BAS[ATNO][  7].a[ 22] =        35.027000000000;     BAS[ATNO][  7].d[ 22] =         0.141592068703;
  BAS[ATNO][  7].a[ 23] =        14.876000000000;     BAS[ATNO][  7].d[ 23] =        -0.023068337557;
  BAS[ATNO][  7].a[ 24] =         5.845500000000;     BAS[ATNO][  7].d[ 24] =        -0.498498794881;
  BAS[ATNO][  7].a[ 25] =         2.285600000000;     BAS[ATNO][  7].d[ 25] =        -0.294624528452;
  BAS[ATNO][  7].a[ 26] =         0.585700000000;     BAS[ATNO][  7].d[ 26] =         1.230678899129;
  BAS[ATNO][  7].a[ 27] =         0.170950000000;     BAS[ATNO][  7].d[ 27] =        -0.304853731284;

  // Basis function   9 L = p
  InitBFNGauss(BAS[ATNO][  8]);
  BAS[ATNO][  8].l  = 1;
  BAS[ATNO][  8].ng = 28;
  BAS[ATNO][  8].a[  0] =      3021.600000000000;     BAS[ATNO][  8].d[  0] =        -0.000048970132;
  BAS[ATNO][  8].a[  1] =       714.730000000000;     BAS[ATNO][  8].d[  1] =        -0.000400770897;
  BAS[ATNO][  8].a[  2] =       230.160000000000;     BAS[ATNO][  8].d[  2] =        -0.001849443474;
  BAS[ATNO][  8].a[  3] =        86.130000000000;     BAS[ATNO][  8].d[  3] =        -0.005219638221;
  BAS[ATNO][  8].a[  4] =        35.027000000000;     BAS[ATNO][  8].d[  4] =        -0.007584037865;
  BAS[ATNO][  8].a[  5] =        14.876000000000;     BAS[ATNO][  8].d[  5] =        -0.003971457269;
  BAS[ATNO][  8].a[  6] =         5.845500000000;     BAS[ATNO][  8].d[  6] =        -0.000306015928;
  BAS[ATNO][  8].a[  7] =         2.285600000000;     BAS[ATNO][  8].d[  7] =         0.000010526645;
  BAS[ATNO][  8].a[  8] =         0.585700000000;     BAS[ATNO][  8].d[  8] =        -0.000001177953;
  BAS[ATNO][  8].a[  9] =      3021.600000000000;     BAS[ATNO][  8].d[  9] =         0.000360265908;
  BAS[ATNO][  8].a[ 10] =       714.730000000000;     BAS[ATNO][  8].d[ 10] =         0.002947766951;
  BAS[ATNO][  8].a[ 11] =       230.160000000000;     BAS[ATNO][  8].d[ 11] =         0.014259494509;
  BAS[ATNO][  8].a[ 12] =        86.130000000000;     BAS[ATNO][  8].d[ 12] =         0.042192641806;
  BAS[ATNO][  8].a[ 13] =        35.027000000000;     BAS[ATNO][  8].d[ 13] =         0.067515583350;
  BAS[ATNO][  8].a[ 14] =        14.876000000000;     BAS[ATNO][  8].d[ 14] =        -0.008317481156;
  BAS[ATNO][  8].a[ 15] =         5.845500000000;     BAS[ATNO][  8].d[ 15] =        -0.167192272176;
  BAS[ATNO][  8].a[ 16] =         2.285600000000;     BAS[ATNO][  8].d[ 16] =        -0.140468259391;
  BAS[ATNO][  8].a[ 17] =         0.585700000000;     BAS[ATNO][  8].d[ 17] =        -0.011730209816;
  BAS[ATNO][  8].a[ 18] =      3021.600000000000;     BAS[ATNO][  8].d[ 18] =        -0.000379208477;
  BAS[ATNO][  8].a[ 19] =       714.730000000000;     BAS[ATNO][  8].d[ 19] =        -0.003154192981;
  BAS[ATNO][  8].a[ 20] =       230.160000000000;     BAS[ATNO][  8].d[ 20] =        -0.015069991737;
  BAS[ATNO][  8].a[ 21] =        86.130000000000;     BAS[ATNO][  8].d[ 21] =        -0.045951305557;
  BAS[ATNO][  8].a[ 22] =        35.027000000000;     BAS[ATNO][  8].d[ 22] =        -0.071433449627;
  BAS[ATNO][  8].a[ 23] =        14.876000000000;     BAS[ATNO][  8].d[ 23] =         0.011638017185;
  BAS[ATNO][  8].a[ 24] =         5.845500000000;     BAS[ATNO][  8].d[ 24] =         0.251493525589;
  BAS[ATNO][  8].a[ 25] =         2.285600000000;     BAS[ATNO][  8].d[ 25] =         0.148638596816;
  BAS[ATNO][  8].a[ 26] =         0.585700000000;     BAS[ATNO][  8].d[ 26] =        -0.620879685946;
  BAS[ATNO][  8].a[ 27] =         0.170950000000;     BAS[ATNO][  8].d[ 27] =         1.282735690396;

  // Basis function  10 L = d
  InitBFNGauss(BAS[ATNO][  9]);
  BAS[ATNO][  9].l  = 2;
  BAS[ATNO][  9].ng = 7;
  BAS[ATNO][  9].a[  0] =       186.590000000000;     BAS[ATNO][  9].d[  0] =         0.008887846496;
  BAS[ATNO][  9].a[  1] =        54.949000000000;     BAS[ATNO][  9].d[  1] =         0.063574585442;
  BAS[ATNO][  9].a[  2] =        20.191000000000;     BAS[ATNO][  9].d[  2] =         0.218940337251;
  BAS[ATNO][  9].a[  3] =         8.080600000000;     BAS[ATNO][  9].d[  3] =         0.409386856429;
  BAS[ATNO][  9].a[  4] =         3.205200000000;     BAS[ATNO][  9].d[  4] =         0.427835106209;
  BAS[ATNO][  9].a[  5] =         1.177800000000;     BAS[ATNO][  9].d[  5] =         0.184516724606;
  BAS[ATNO][  9].a[  6] =         0.393000000000;     BAS[ATNO][  9].d[  6] =        -0.126967744903;

  // Basis function  11 L = d
  InitBFNGauss(BAS[ATNO][ 10]);
  BAS[ATNO][ 10].l  = 2;
  BAS[ATNO][ 10].ng = 7;
  BAS[ATNO][ 10].a[  0] =       186.590000000000;     BAS[ATNO][ 10].d[  0] =        -0.000793547940;
  BAS[ATNO][ 10].a[  1] =        54.949000000000;     BAS[ATNO][ 10].d[  1] =        -0.005676232297;
  BAS[ATNO][ 10].a[  2] =        20.191000000000;     BAS[ATNO][ 10].d[  2] =        -0.019548003417;
  BAS[ATNO][ 10].a[  3] =         8.080600000000;     BAS[ATNO][ 10].d[  3] =        -0.036551947297;
  BAS[ATNO][ 10].a[  4] =         3.205200000000;     BAS[ATNO][ 10].d[  4] =        -0.038199092150;
  BAS[ATNO][ 10].a[  5] =         1.177800000000;     BAS[ATNO][ 10].d[  5] =        -0.016474504463;
  BAS[ATNO][ 10].a[  6] =         0.393000000000;     BAS[ATNO][ 10].d[  6] =         1.015314225081;

-------
TIMINGS
-------

Total SCF time: 0 days 0 hours 0 min 1 sec 

Total time                  ....       1.997 sec
Sum of individual times     ....       1.818 sec  ( 91.0%)

Fock matrix formation       ....       1.093 sec  ( 54.7%)
  XC integration            ....       0.019 sec  (  1.8% of F)
    Basis function eval.    ....       0.006 sec  ( 31.2% of XC)
    Density eval.           ....       0.001 sec  (  4.5% of XC)
    XC-Functional eval.     ....       0.002 sec  (  8.8% of XC)
    XC-Potential eval.      ....       0.001 sec  (  3.2% of XC)
Diagonalization             ....       0.000 sec  (  0.0%)
Density matrix formation    ....       0.000 sec  (  0.0%)
Population analysis         ....       0.000 sec  (  0.0%)
Initial guess               ....       0.071 sec  (  3.5%)
Orbital Transformation      ....       0.000 sec  (  0.0%)
Orbital Orthonormalization  ....       0.000 sec  (  0.0%)
DIIS solution               ....       0.000 sec  (  0.0%)
SOSCF solution              ....       0.001 sec  (  0.0%)
Grid generation             ....       0.652 sec  ( 32.7%)

-------------------------   --------------------
FINAL SINGLE POINT ENERGY     -1416.416522650662
-------------------------   --------------------


                            ***************************************
                            *     ORCA property calculations      *
                            ***************************************

                                    ---------------------
                                    Active property flags
                                    ---------------------
   (+) Dipole Moment


------------------------------------------------------------------------------
                       ORCA ELECTRIC PROPERTIES CALCULATION
------------------------------------------------------------------------------

Dipole Moment Calculation                       ... on
Quadrupole Moment Calculation                   ... off
Polarizability Calculation                      ... off
GBWName                                         ... Kr_pc-1_68.5179945_.gbw
Electron density file                           ... Kr_pc-1_68.5179945_.scfp
The origin for moment calculation is the CENTER OF MASS  = ( 0.000000,  0.000000  0.000000)

-------------
DIPOLE MOMENT
-------------
                                X             Y             Z
Electronic contribution:     -0.00000      -0.00000      -0.00000
Nuclear contribution   :      0.00000       0.00000       0.00000
                        -----------------------------------------
Total Dipole Moment    :     -0.00000      -0.00000      -0.00000
                        -----------------------------------------
Magnitude (a.u.)       :      0.00000
Magnitude (Debye)      :      0.00000



--------------------
Rotational spectrum 
--------------------
 
Rotational constants in cm-1:     0.000000     0.000000     0.000000 
Rotational constants in MHz :     0.000000     0.000000     0.000000 

 Dipole components along the rotational axes: 
x,y,z [a.u.] :    -0.000000    -0.000000    -0.000000 
x,y,z [Debye]:    -0.000000    -0.000000    -0.000000 

 

Timings for individual modules:

Sum of individual times         ...        3.359 sec (=   0.056 min)
GTO integral calculation        ...        0.600 sec (=   0.010 min)  17.9 %
Relativistic integrals          ...        0.499 sec (=   0.008 min)  14.9 %
SCF iterations                  ...        2.260 sec (=   0.038 min)  67.3 %
                             ****ORCA TERMINATED NORMALLY****
TOTAL RUN TIME: 0 days 0 hours 0 minutes 3 seconds 693 msec
