
                                 *****************
                                 * O   R   C   A *
                                 *****************

           --- An Ab Initio, DFT and Semiempirical electronic structure package ---

                  #######################################################
                  #                        -***-                        #
                  #          Department of theory and spectroscopy      #
                  #               Directorship: Frank Neese             #
                  #        Max Planck Institute fuer Kohlenforschung    #
                  #                Kaiser Wilhelm Platz 1               #
                  #                 D-45470 Muelheim/Ruhr               #
                  #                      Germany                        #
                  #                                                     #
                  #                  All rights reserved                #
                  #                        -***-                        #
                  #######################################################


                         Program Version 4.2.1 -  RELEASE  -


 With contributions from (in alphabetic order):
   Daniel Aravena         : Magnetic Suceptibility
   Michael Atanasov       : Ab Initio Ligand Field Theory (pilot matlab implementation)
   Alexander A. Auer      : GIAO ZORA, VPT2
   Ute Becker             : Parallelization
   Giovanni Bistoni       : ED, misc. LED, open-shell LED, HFLD
   Martin Brehm           : Molecular dynamics
   Dmytro Bykov           : SCF Hessian
   Vijay G. Chilkuri      : MRCI spin determinant printing, contributions to CSF-ICE
   Dipayan Datta          : RHF DLPNO-CCSD density
   Achintya Kumar Dutta   : EOM-CC, STEOM-CC
   Dmitry Ganyushin       : Spin-Orbit,Spin-Spin,Magnetic field MRCI
   Miquel Garcia          : C-PCM Hessian, Gaussian charge scheme
   Yang Guo               : DLPNO-NEVPT2, CIM, IAO-localization
   Andreas Hansen         : Spin unrestricted coupled pair/coupled cluster methods
   Benjamin Helmich-Paris : CASSCF linear response (MC-RPA)
   Lee Huntington         : MR-EOM, pCC
   Robert Izsak           : Overlap fitted RIJCOSX, COSX-SCS-MP3, EOM
   Christian Kollmar      : KDIIS, OOCD, Brueckner-CCSD(T), CCSD density
   Simone Kossmann        : Meta GGA functionals, TD-DFT gradient, OOMP2, MP2 Hessian
   Martin Krupicka        : AUTO-CI
   Lucas Lang             : DCDCAS
   Dagmar Lenk            : GEPOL surface, SMD
   Dimitrios Liakos       : Extrapolation schemes; Compound Job, initial MDCI parallelization
   Dimitrios Manganas     : Further ROCIS development; embedding schemes
   Dimitrios Pantazis     : SARC Basis sets
   Taras Petrenko         : DFT Hessian,TD-DFT gradient, ASA, ECA, R-Raman, ABS, FL, XAS/XES, NRVS
   Peter Pinski           : DLPNO-MP2, DLPNO-MP2 Gradient
   Christoph Reimann      : Effective Core Potentials
   Marius Retegan         : Local ZFS, SOC
   Christoph Riplinger    : Optimizer, TS searches, QM/MM, DLPNO-CCSD(T), (RO)-DLPNO pert. Triples
   Tobias Risthaus        : Range-separated hybrids, TD-DFT gradient, RPA, STAB
   Michael Roemelt        : Original ROCIS implementation
   Masaaki Saitow         : Open-shell DLPNO-CCSD energy and density
   Barbara Sandhoefer     : DKH picture change effects
   Avijit Sen             : IP-ROCIS
   Kantharuban Sivalingam : CASSCF convergence, NEVPT2, FIC-MRCI
   Bernardo de Souza      : ESD, SOC TD-DFT
   Georgi Stoychev        : AutoAux, RI-MP2 NMR
   Willem Van den Heuvel  : Paramagnetic NMR
   Boris Wezisla          : Elementary symmetry handling
   Frank Wennmohs         : Technical directorship


 We gratefully acknowledge several colleagues who have allowed us to
 interface, adapt or use parts of their codes:
   Stefan Grimme, W. Hujo, H. Kruse,             : VdW corrections, initial TS optimization,
                  C. Bannwarth                     DFT functionals, gCP, sTDA/sTD-DF
   Ed Valeev, F. Pavosevic, A. Kumar             : LibInt (2-el integral package), F12 methods
   Garnet Chan, S. Sharma, J. Yang, R. Olivares  : DMRG
   Ulf Ekstrom                                   : XCFun DFT Library
   Mihaly Kallay                                 : mrcc  (arbitrary order and MRCC methods)
   Andreas Klamt, Michael Diedenhofen            : otool_cosmo (COSMO solvation model)
   Jiri Pittner, Ondrej Demel                    : Mk-CCSD
   Frank Weinhold                                : gennbo (NPA and NBO analysis)
   Christopher J. Cramer and Donald G. Truhlar   : smd solvation model
   Lars Goerigk                                  : TD-DFT with DH, B97 family of functionals
   V. Asgeirsson, H. Jonsson                     : NEB implementation
   FAccTs GmbH                                   : IRC, NEB, NEB-TS, Multilevel, MM, QM/MM, CI optimization
   S Lehtola, MJT Oliveira, MAL Marques          : LibXC Library


 Your calculation uses the libint2 library for the computation of 2-el integrals
 For citations please refer to: http://libint.valeyev.net

 Your ORCA version has been built with support for libXC version: 4.2.3
 For citations please refer to: https://tddft.org/programs/libxc/

 This ORCA versions uses:
   CBLAS   interface :  Fast vector & matrix operations
   LAPACKE interface :  Fast linear algebra routines
   SCALAPACK package :  Parallel linear algebra routines


----- Orbital basis set information -----
Your calculation utilizes the basis: pc-4
   H, C-F              : F. Jensen, J. Chem. Phys. 115, 9113 (2001).
                         F. Jensen, J. Chem. Phys. 116, 7372 (2002).
                         F. Jensen, J. Chem. Phys. 117, 9234 (2002).
   Si-Cl               : F. Jensen, T. Helgaker, J. Chem. Phys. 121, 3463 (2004).
   He-B, Ne-Mg, Al, Ar : F. Jensen, J. Phys. Chem. A 111, 11198 (2007).
   K, Ca, Ga-Kr        : F. Jensen, J. Chem. Phys. 136, 094110 (2012).
   Sc-Zn               : F. Jensen, J. Chem. Phys. 138, 014107 (2013).

================================================================================
                                        WARNINGS
                       Please study these warnings very carefully!
================================================================================


INFO   : the flag for use of LIBINT has been found!

================================================================================
                                       INPUT FILE
================================================================================
NAME = Kr_pc-4_548.143956_.inp
|  1> ! LDA pc-4 nori grid5 finalgrid6 verytightscf
|  2> %Pal NProcs 18 End
|  3> 
|  4> % REL
|  5>   Method ZORA
|  6>   ModelPot 1, 0, 0, 0
|  7>   velit 548.143956
|  8> END
|  9> 
| 10> *xyz 34 1
| 11> Kr 0.0 0.0 0.0
| 12> **                         ****END OF INPUT****
================================================================================

                       ****************************
                       * Single Point Calculation *
                       ****************************

---------------------------------
CARTESIAN COORDINATES (ANGSTROEM)
---------------------------------
  Kr     0.000000    0.000000    0.000000

----------------------------
CARTESIAN COORDINATES (A.U.)
----------------------------
  NO LB      ZA    FRAG     MASS         X           Y           Z
   0 Kr   36.0000    0    83.800    0.000000    0.000000    0.000000

--------------------------------
INTERNAL COORDINATES (ANGSTROEM)
--------------------------------
 Kr     0   0   0     0.000000000000     0.00000000     0.00000000

---------------------------
INTERNAL COORDINATES (A.U.)
---------------------------
 Kr     0   0   0     0.000000000000     0.00000000     0.00000000

---------------------
BASIS SET INFORMATION
---------------------
There are 1 groups of distinct atoms

 Group   1 Type Kr  : 84s49p13d4f2g1h contracted to 8s7p5d4f2g1h pattern {202020201111/1515151111/91111/1111/11/1}

Atom   0Kr   basis set group =>   1


           ************************************************************
           *        Program running with 18 parallel MPI-processes    *
           *              working on a common directory               *
           ************************************************************
------------------------------------------------------------------------------
                           ORCA GTO INTEGRAL CALCULATION
------------------------------------------------------------------------------

                         BASIS SET STATISTICS AND STARTUP INFO

 # of primitive gaussian shells          ...  153
 # of primitive gaussian functions       ...  353
 # of contracted shells                  ...   27
 # of contracted basis functions         ...  111
 Highest angular momentum                ...    5
 Maximum contraction depth               ...   20
 Integral package used                   ... LIBINT
 Integral threshhold            Thresh   ...  1.000e-12
 Primitive cut-off              TCut     ...  1.000e-14


------------------------------ INTEGRAL EVALUATION ----------------------------


 * One electron integrals 
 Pre-screening matrix                    ... done
 Shell pair data                         ... done (   0.000 sec)



           ************************************************************
           *        Program running with 18 parallel MPI-processes    *
           *              working on a common directory               *
           ************************************************************
------------------------------------------------------------------------------
                          ORCA RELATIVISTIC HAMILTONIAN
------------------------------------------------------------------------------

Relativistic Method            ... ZORA(MP)
Treatment of potential         ... Van Wuellen
Nucleus model                  ... Point Nucleus
Speed of light used            ... 548.14395600000000


            *************************************************
            *         ZERO ORDER REGULAR APPROXIMATION      *
            *                     ZORA(MP)                  *
            *            Programmed by FN according to      *
            *                   C. van Wuellen              *
            *       J. Chem. Phys. (1998) vol 109, 392-399  *
            *************************************************

Terms included in model potential: +V(e,N)
Basis function cutoff value   ... 1.000000e-12
Loading the fitted atomic densities  (DKH4)  ... done
Calculating the cutoffs                      ... done
Number of fit functions                      ... 27
Setting up the integration grid ... done


           ************************************************************
           *        Program running with 18 parallel MPI-processes    *
           *              working on a common directory               *
           ************************************************************
-------------------------------------------------------------------------------
                                 ORCA SCF
-------------------------------------------------------------------------------

------------
SCF SETTINGS
------------
Hamiltonian:
 Density Functional     Method          .... DFT(GTOs)
 Exchange Functional    Exchange        .... Slater
   X-Alpha parameter    XAlpha          ....  0.666667
 Correlation Functional Correlation     .... VWN-5
 Gradients option       PostSCFGGA      .... off
   Density functional embedding theory  .... OFF

Relativistic Settings:
 Scalar relativistic method             .... ZORA
 Speed of light used       Velit        ....       548.143956
Orbital energies will be scaled


General Settings:
 Integral files         IntName         .... Kr_pc-4_548.143956_
 Hartree-Fock type      HFTyp           .... RHF
 Total Charge           Charge          ....   34
 Multiplicity           Mult            ....    1
 Number of Electrons    NEL             ....    2
 Basis Dimension        Dim             ....  111
 Nuclear Repulsion      ENuc            ....      0.0000000000 Eh

Convergence Acceleration:
 DIIS                   CNVDIIS         .... on
   Start iteration      DIISMaxIt       ....    12
   Startup error        DIISStart       ....  0.200000
   # of expansion vecs  DIISMaxEq       ....     5
   Bias factor          DIISBfac        ....   1.050
   Max. coefficient     DIISMaxC        ....  10.000
 Newton-Raphson         CNVNR           .... off
 SOSCF                  CNVSOSCF        .... on
   Start iteration      SOSCFMaxIt      ....   150
   Startup grad/error   SOSCFStart      ....  0.003300
 Level Shifting         CNVShift        .... on
   Level shift para.    LevelShift      ....    0.2500
   Turn off err/grad.   ShiftErr        ....    0.0010
 Zerner damping         CNVZerner       .... off
 Static damping         CNVDamp         .... on
   Fraction old density DampFac         ....    0.7000
   Max. Damping (<1)    DampMax         ....    0.9800
   Min. Damping (>=0)   DampMin         ....    0.0000
   Turn off err/grad.   DampErr         ....    0.1000
 Fernandez-Rico         CNVRico         .... off

SCF Procedure:
 Maximum # iterations   MaxIter         ....   125
 SCF integral mode      SCFMode         .... Direct
   Integral package                     .... LIBINT
 Reset frequency        DirectResetFreq ....    20
 Integral Threshold     Thresh          ....  1.000e-12 Eh
 Primitive CutOff       TCut            ....  1.000e-14 Eh

Convergence Tolerance:
 Convergence Check Mode ConvCheckMode   .... Total+1el-Energy
 Convergence forced     ConvForced      .... 0
 Energy Change          TolE            ....  1.000e-09 Eh
 1-El. energy change                    ....  1.000e-06 Eh
 Orbital Gradient       TolG            ....  2.000e-06
 Orbital Rotation angle TolX            ....  2.000e-06
 DIIS Error             TolErr          ....  1.000e-08


Diagonalization of the overlap matrix:
Smallest eigenvalue                        ... 1.976e-05
Time for diagonalization                   ...    0.003 sec
Threshold for overlap eigenvalues          ... 1.000e-08
Number of eigenvalues below threshold      ... 0
Time for construction of square roots      ...    0.002 sec
Total time needed                          ...    0.005 sec

-------------------
DFT GRID GENERATION
-------------------

General Integration Accuracy     IntAcc      ...  5.010
Radial Grid Type                 RadialGrid  ... Gauss-Chebyshev
Angular Grid (max. acc.)         AngularGrid ... Lebedev-434
Angular grid pruning method      GridPruning ... 3 (G Style)
Weight generation scheme         WeightScheme... Becke
Basis function cutoff            BFCut       ...    1.0000e-12
Integration weight cutoff        WCut        ...    1.0000e-14
Grids for H and He will be reduced by one unit

# of grid points (after initial pruning)     ...  16106 (   0.0 sec)
# of grid points (after weights+screening)   ...  16106 (   0.0 sec)
Grid point division into batches done        ...    0.2 sec
Reduced shell lists constructed in    0.2 sec

Total number of grid points                  ...    16106
Total number of batches                      ...      252
Average number of points per batch           ...       63
Average number of grid points per atom       ...    16106
Average number of shells per batch           ...     2.00 ( 7.41%)
Average number of basis functions per batch  ...     4.93 ( 4.44%)
Average number of large shells per batch     ...     0.93 (46.67%)
Average number of large basis fcns per batch ...     2.80 (56.76%)
Maximum spatial batch extension              ...  17.34, 17.34, 17.34 au
Average spatial batch extension              ...   0.86,  0.87,  0.87 au

Time for grid setup =    0.248 sec

------------------------------
INITIAL GUESS: MODEL POTENTIAL
------------------------------
Loading ZORA relativistic densities                ... done
Calculating cut-offs                               ... done
Setting up the integral package                    ... done
Initializing the effective Hamiltonian             ... done
Starting the Coulomb interaction                   ... done (   0.0 sec)
Reading the grid                                   ... done
Mapping shells                                     ... done
Starting the XC term evaluation                    ... done (   0.0 sec)
  promolecular density results
     # of electrons  =     36.000000565
     EX              =    -91.042004939
     EC              =     -3.295965580
     EX+EC           =    -94.337970520
Transforming the Hamiltonian                       ... done (   0.0 sec)
Diagonalizing the Hamiltonian                      ... done (   0.0 sec)
Back transforming the eigenvectors                 ... done (   0.0 sec)
Now organizing SCF variables                       ... done
                      ------------------
                      INITIAL GUESS DONE (   0.3 sec)
                      ------------------
--------------
SCF ITERATIONS
--------------
ITER       Energy         Delta-E        Max-DP      RMS-DP      [F,P]     Damp
               ***  Starting incremental Fock matrix formation  ***
  0  -1273.3761520202   0.000000000000 0.18729946  0.00284988  6.1363004 0.7000
  1  -1273.3926412458  -0.016489225659 0.13045479  0.00198348  4.2867308 0.7000
  2  -1273.4041474909  -0.011506245105 0.09081562  0.00137966  2.9940160 0.7000
                      *** Initiating the SOSCF procedure ***
                      *** Re-Reading the Fockian *** 
                      *** Removing any level shift *** 
ITER      Energy       Delta-E        Grad      Rot      Max-DP    RMS-DP
  3  -1273.41218426  -0.0080367704  0.002698  0.002698  0.210733  0.003199
               *** Restarting incremental Fock matrix formation ***
  4  -1273.43088090  -0.0186966435  0.006279  0.000012  0.002723  0.000049
  5  -1273.43088117  -0.0000002664  0.000042  0.000000  0.000018  0.000000
                 **** Energy Check signals convergence ****
              ***Rediagonalizing the Fockian in SOSCF/NRSCF***

               *****************************************************
               *                     SUCCESS                       *
               *           SCF CONVERGED AFTER   6 CYCLES          *
               *****************************************************

Setting up the final grid:

General Integration Accuracy     IntAcc      ...  5.340
Radial Grid Type                 RadialGrid  ... Gauss-Chebyshev
Angular Grid (max. acc.)         AngularGrid ... Lebedev-590
Angular grid pruning method      GridPruning ... 3 (G Style)
Weight generation scheme         WeightScheme... Becke
Basis function cutoff            BFCut       ...    1.0000e-12
Integration weight cutoff        WCut        ...    1.0000e-14
Grids for H and He will be reduced by one unit

# of grid points (after initial pruning)     ...  24180 (   0.0 sec)
# of grid points (after weights+screening)   ...  24180 (   0.0 sec)
Grid point division into batches done        ...    0.4 sec
Reduced shell lists constructed in    0.4 sec

Total number of grid points                  ...    24180
Total number of batches                      ...      378
Average number of points per batch           ...       63
Average number of grid points per atom       ...    24180
Average number of shells per batch           ...     1.36 ( 5.05%)
Average number of basis functions per batch  ...     4.09 ( 3.69%)
Average number of large shells per batch     ...     0.95 (70.00%)
Average number of large basis fcns per batch ...     2.86 (70.00%)
Maximum spatial batch extension              ...  17.58, 17.58, 17.58 au
Average spatial batch extension              ...   0.77,  0.77,  0.77 au

Final grid set up in    0.4 sec
Final integration                            ... done (   0.0 sec)
Change in XC energy                          ...    -0.000068938
Integrated number of electrons               ...     1.999998892
Previous integrated no of electrons          ...     1.999995400

----------------
TOTAL SCF ENERGY
----------------

Total Energy       :        -1273.43095011 Eh          -34651.81782 eV

Components:
Nuclear Repulsion  :            0.00000000 Eh               0.00000 eV
Electronic Energy  :        -1273.43095011 Eh          -34651.81782 eV
One Electron Energy:        -1298.54278292 Eh          -35335.14553 eV
Two Electron Energy:           25.11183281 Eh             683.32771 eV

Virial components:
Potential Energy   :        -2541.49212273 Eh          -69157.51656 eV
Kinetic Energy     :         1268.06117262 Eh           34505.69874 eV
Virial Ratio       :            2.00423464


DFT components:
N(Alpha)           :        0.999999445965 electrons
N(Beta)            :        0.999999445965 electrons
N(Total)           :        1.999998891931 electrons
E(X)               :      -19.074972686890 Eh       
E(C)               :       -0.277936440430 Eh       
E(XC)              :      -19.352909127319 Eh       
DFET-embed. en.    :        0.000000000000 Eh       

---------------
SCF CONVERGENCE
---------------

  Last Energy change         ...   -1.0459e-11  Tolerance :   1.0000e-09
  Last MAX-Density change    ...    0.0000e+00  Tolerance :   1.0000e-08
  Last RMS-Density change    ...    0.0000e+00  Tolerance :   1.0000e-09
  Last Orbital Gradient      ...    7.2705e-11  Tolerance :   2.0000e-06
  Last Orbital Rotation      ...    0.0000e+00  Tolerance :   2.0000e-06

================================================================================
                                        WARNING
Number of found core electrons (2) does not match given number of chemical core electrons (18)
================================================================================
             **** THE GBW FILE WAS UPDATED (Kr_pc-4_548.143956_.gbw) ****
             **** DENSITY FILE WAS UPDATED (Kr_pc-4_548.143956_.scfp) ****
             **** ENERGY FILE WAS UPDATED (Kr_pc-4_548.143956_.en.tmp) ****
             **** THE GBW FILE WAS UPDATED (Kr_pc-4_548.143956_.gbw) ****
             **** DENSITY FILE WAS UPDATED (Kr_pc-4_548.143956_.scfp) ****
----------------
ORBITAL ENERGIES
----------------

  NO   OCC          E(Eh)            E(eV) 
   0   2.0000    -617.672057    -16807.7112 
   1   0.0000    -148.775786     -4048.3949 
   2   0.0000    -146.527276     -3987.2099 
   3   0.0000    -146.527276     -3987.2099 
   4   0.0000    -146.527276     -3987.2099 
   5   0.0000     -63.614670     -1731.0432 
   6   0.0000     -61.285678     -1667.6681 
   7   0.0000     -61.285678     -1667.6681 
   8   0.0000     -61.285678     -1667.6681 
   9   0.0000     -61.285678     -1667.6681 
  10   0.0000     -61.285678     -1667.6681 
  11   0.0000     -60.253583     -1639.5833 
  12   0.0000     -60.253583     -1639.5833 
  13   0.0000     -60.253583     -1639.5833 
  14   0.0000     -35.065084      -954.1695 
  15   0.0000     -35.065084      -954.1695 
  16   0.0000     -35.065084      -954.1695 
  17   0.0000     -35.065084      -954.1695 
  18   0.0000     -35.065084      -954.1695 
  19   0.0000     -35.065084      -954.1695 
  20   0.0000     -35.065084      -954.1695 
  21   0.0000     -33.888928      -922.1646 
  22   0.0000     -31.643340      -861.0590 
  23   0.0000     -31.643340      -861.0590 
  24   0.0000     -31.643340      -861.0590 
  25   0.0000     -31.643340      -861.0590 
  26   0.0000     -31.643340      -861.0590 
  27   0.0000     -29.391134      -799.7734 
  28   0.0000     -29.391134      -799.7734 
  29   0.0000     -29.391134      -799.7734 
  30   0.0000     -22.198776      -604.0594 
  31   0.0000     -22.198776      -604.0594 
  32   0.0000     -22.198776      -604.0594 
  33   0.0000     -22.198776      -604.0594 
  34   0.0000     -22.198776      -604.0594 
  35   0.0000     -22.198776      -604.0594 
  36   0.0000     -22.198776      -604.0594 
  37   0.0000     -20.707955      -563.4921 
  38   0.0000     -20.707955      -563.4921 
  39   0.0000     -20.707955      -563.4921 
  40   0.0000     -20.707955      -563.4921 
  41   0.0000     -20.707955      -563.4921 
  42   0.0000     -20.707955      -563.4921 
  43   0.0000     -20.707955      -563.4921 
  44   0.0000     -20.707955      -563.4921 
  45   0.0000     -20.707955      -563.4921 
  46   0.0000     -20.633896      -561.4769 
  47   0.0000     -19.474560      -529.9297 
  48   0.0000     -19.474560      -529.9297 
  49   0.0000     -19.474560      -529.9297 
  50   0.0000     -19.474560      -529.9297 
  51   0.0000     -19.474560      -529.9297 
  52   0.0000     -17.349533      -472.1048 
  53   0.0000     -17.349533      -472.1048 
  54   0.0000     -17.349533      -472.1048 
  55   0.0000     -15.170829      -412.8192 
  56   0.0000     -15.170829      -412.8192 
  57   0.0000     -15.170829      -412.8192 
  58   0.0000     -15.170829      -412.8192 
  59   0.0000     -15.170829      -412.8192 
  60   0.0000     -15.170829      -412.8192 
  61   0.0000     -15.170829      -412.8192 
  62   0.0000     -13.449451      -365.9782 
  63   0.0000     -13.196740      -359.1015 
  64   0.0000     -13.196740      -359.1015 
  65   0.0000     -13.196740      -359.1015 
  66   0.0000     -13.196740      -359.1015 
  67   0.0000     -13.196740      -359.1015 
  68   0.0000     -12.913259      -351.3876 
  69   0.0000     -12.913259      -351.3876 
  70   0.0000     -12.913259      -351.3876 
  71   0.0000     -12.913259      -351.3876 
  72   0.0000     -12.913259      -351.3876 
  73   0.0000     -12.913259      -351.3876 
  74   0.0000     -12.913259      -351.3876 
  75   0.0000     -12.913259      -351.3876 
  76   0.0000     -12.913259      -351.3876 
  77   0.0000     -12.913259      -351.3876 
  78   0.0000     -12.913259      -351.3876 
  79   0.0000     -12.652328      -344.2873 
  80   0.0000     -12.652328      -344.2873 
  81   0.0000     -12.652328      -344.2873 
  82   0.0000     -12.652328      -344.2873 
  83   0.0000     -12.652328      -344.2873 
  84   0.0000     -12.652328      -344.2873 
  85   0.0000     -12.652328      -344.2873 
  86   0.0000     -12.652328      -344.2873 
  87   0.0000     -12.652328      -344.2873 
  88   0.0000     -11.759603      -319.9951 
  89   0.0000     -11.759603      -319.9951 
  90   0.0000     -11.759603      -319.9951 
  91   0.0000     -10.068679      -273.9827 
  92   0.0000     -10.068679      -273.9827 
  93   0.0000     -10.068679      -273.9827 
  94   0.0000     -10.068679      -273.9827 
  95   0.0000     -10.068679      -273.9827 
  96   0.0000     -10.068679      -273.9827 
  97   0.0000     -10.068679      -273.9827 
  98   0.0000      -9.138574      -248.6732 
  99   0.0000      -9.138574      -248.6732 
 100   0.0000      -9.138574      -248.6732 
 101   0.0000      -9.138574      -248.6732 
 102   0.0000      -9.138574      -248.6732 
 103   0.0000      -8.819371      -239.9873 
 104   0.0000      -8.462012      -230.2631 
 105   0.0000      -8.462012      -230.2631 
 106   0.0000      -8.462012      -230.2631 
 107   0.0000      -5.819163      -158.3475 
 108   0.0000      -5.819163      -158.3475 
 109   0.0000      -5.819163      -158.3475 
 110   0.0000     151.059984      4110.5511 

                    ********************************
                    * MULLIKEN POPULATION ANALYSIS *
                    ********************************

-----------------------
MULLIKEN ATOMIC CHARGES
-----------------------
   0 Kr:   34.000000
Sum of atomic charges:   34.0000000

--------------------------------
MULLIKEN REDUCED ORBITAL CHARGES
--------------------------------
  0 Krs       :     2.000000  s :     2.000000
      pz      :     0.000000  p :     0.000000
      px      :     0.000000
      py      :     0.000000
      dz2     :     0.000000  d :     0.000000
      dxz     :     0.000000
      dyz     :     0.000000
      dx2y2   :     0.000000
      dxy     :     0.000000
      f0      :     0.000000  f :     0.000000
      f+1     :     0.000000
      f-1     :     0.000000
      f+2     :     0.000000
      f-2     :     0.000000
      f+3     :     0.000000
      f-3     :     0.000000
      g0      :     0.000000  g :     0.000000
      g+1     :     0.000000
      g-1     :     0.000000
      g+2     :     0.000000
      g-2     :     0.000000
      g+3     :     0.000000
      g-3     :     0.000000
      g+4     :     0.000000
      g-4     :     0.000000
      h0      :     0.000000  h :     0.000000
      h+1     :     0.000000
      h-1     :     0.000000
      h+2     :     0.000000
      h-2     :     0.000000
      h+3     :     0.000000
      h-3     :     0.000000
      h+4     :     0.000000
      h-4     :     0.000000
      h+5     :     0.000000
      h-5     :     0.000000


                     *******************************
                     * LOEWDIN POPULATION ANALYSIS *
                     *******************************

----------------------
LOEWDIN ATOMIC CHARGES
----------------------
   0 Kr:   34.000000

-------------------------------
LOEWDIN REDUCED ORBITAL CHARGES
-------------------------------
  0 Krs       :     2.000000  s :     2.000000
      pz      :     0.000000  p :     0.000000
      px      :     0.000000
      py      :     0.000000
      dz2     :     0.000000  d :     0.000000
      dxz     :     0.000000
      dyz     :     0.000000
      dx2y2   :     0.000000
      dxy     :     0.000000
      f0      :     0.000000  f :     0.000000
      f+1     :     0.000000
      f-1     :     0.000000
      f+2     :     0.000000
      f-2     :     0.000000
      f+3     :     0.000000
      f-3     :     0.000000
      g0      :     0.000000  g :     0.000000
      g+1     :     0.000000
      g-1     :     0.000000
      g+2     :     0.000000
      g-2     :     0.000000
      g+3     :     0.000000
      g-3     :     0.000000
      g+4     :     0.000000
      g-4     :     0.000000
      h0      :     0.000000  h :     0.000000
      h+1     :     0.000000
      h-1     :     0.000000
      h+2     :     0.000000
      h-2     :     0.000000
      h+3     :     0.000000
      h-3     :     0.000000
      h+4     :     0.000000
      h-4     :     0.000000
      h+5     :     0.000000
      h-5     :     0.000000


                      *****************************
                      * MAYER POPULATION ANALYSIS *
                      *****************************

  NA   - Mulliken gross atomic population
  ZA   - Total nuclear charge
  QA   - Mulliken gross atomic charge
  VA   - Mayer's total valence
  BVA  - Mayer's bonded valence
  FA   - Mayer's free valence

  ATOM       NA         ZA         QA         VA         BVA        FA
  0 Kr     2.0000    36.0000    34.0000    -0.0000     0.0000    -0.0000

  Mayer bond orders larger than 0.100000


--------------------------
ATOM BASIS FOR ELEMENT Kr
--------------------------
 NewGTO Kr
 S 84
    1   81180000.000000000000         0.000000512679
    2   12174000.000000000000         0.000003976846
    3    2775000.000000000000         0.000020879547
    4     787190.000000000000         0.000088101460
    5     257190.000000000000         0.000320884317
    6      92980.000000000000         0.001048193787
    7      36316.000000000000         0.003139103102
    8      15086.000000000000         0.008725817792
    9       6592.600000000000         0.022572267513
   10       3007.200000000000         0.053886972252
   11       1422.900000000000         0.115935932647
   12        693.380000000000         0.214926199110
   13        347.150000000000         0.307767275410
   14        177.900000000000         0.291301726175
   15         92.353000000000         0.136648670282
   16         45.341000000000         0.016802862168
   17         23.694000000000        -0.001151972912
   18         12.583000000000         0.000524823224
   19          6.605000000000        -0.000243917876
   20          3.354100000000         0.000112913658
   21   81180000.000000000000        -0.000000021463
   22   12174000.000000000000        -0.000000166452
   23    2775000.000000000000        -0.000000874382
   24     787190.000000000000        -0.000003687529
   25     257190.000000000000        -0.000013447014
   26      92980.000000000000        -0.000043927020
   27      36316.000000000000        -0.000132037857
   28      15086.000000000000        -0.000368621612
   29       6592.600000000000        -0.000967237781
   30       3007.200000000000        -0.002366333641
   31       1422.900000000000        -0.005381957249
   32        693.380000000000        -0.011049602085
   33        347.150000000000        -0.019073075195
   34        177.900000000000        -0.024759104420
   35         92.353000000000        -0.011989832321
   36         45.341000000000         0.036614117881
   37         23.694000000000         0.072953928989
   38         12.583000000000         0.044847698306
   39          6.605000000000         0.007090246451
   40          3.354100000000        -0.000004798034
   41   81180000.000000000000         0.000000035888
   42   12174000.000000000000         0.000000278524
   43    2775000.000000000000         0.000001460961
   44     787190.000000000000         0.000006173079
   45     257190.000000000000         0.000022458201
   46      92980.000000000000         0.000073586378
   47      36316.000000000000         0.000220493873
   48      15086.000000000000         0.000618540628
   49       6592.600000000000         0.001617932892
   50       3007.200000000000         0.003993964631
   51       1422.900000000000         0.009086731791
   52        693.380000000000         0.019069887968
   53        347.150000000000         0.033409557438
   54        177.900000000000         0.046334764407
   55         92.353000000000         0.022867793897
   56         45.341000000000        -0.088550189598
   57         23.694000000000        -0.241121776188
   58         12.583000000000        -0.186954025846
   59          6.605000000000         0.148694102516
   60          3.354100000000         0.390088940962
   61   81180000.000000000000        -0.000000021001
   62   12174000.000000000000        -0.000000162719
   63    2775000.000000000000        -0.000000853805
   64     787190.000000000000        -0.000003606451
   65     257190.000000000000        -0.000013126787
   66      92980.000000000000        -0.000042987324
   67      36316.000000000000        -0.000128903065
   68      15086.000000000000        -0.000361353735
   69       6592.600000000000        -0.000946262384
   70       3007.200000000000        -0.002334665953
   71       1422.900000000000        -0.005323793060
   72        693.380000000000        -0.011178599476
   73        347.150000000000        -0.019700424738
   74        177.900000000000        -0.027443658069
   75         92.353000000000        -0.013846472041
   76         45.341000000000         0.055057206264
   77         23.694000000000         0.156076947933
   78         12.583000000000         0.130721487078
   79          6.605000000000        -0.120570765543
   80          3.354100000000        -0.426859610364
   81          1.662200000000         0.022814425331
   82          0.654060000000        -0.011310236716
   83          0.303170000000         0.005810894197
   84          0.129700000000        -0.001507311614
 S 84
    1   81180000.000000000000         0.000000060670
    2   12174000.000000000000         0.000000470617
    3    2775000.000000000000         0.000002470873
    4     787190.000000000000         0.000010425872
    5     257190.000000000000         0.000037973252
    6      92980.000000000000         0.000124042606
    7      36316.000000000000         0.000371479525
    8      15086.000000000000         0.001032607895
    9       6592.600000000000         0.002671188215
   10       3007.200000000000         0.006376951058
   11       1422.900000000000         0.013719786758
   12        693.380000000000         0.025434233833
   13        347.150000000000         0.036420989537
   14        177.900000000000         0.034472466596
   15         92.353000000000         0.016170919354
   16         45.341000000000         0.001988440345
   17         23.694000000000        -0.000136323764
   18         12.583000000000         0.000062107257
   19          6.605000000000        -0.000028865091
   20          3.354100000000         0.000013362133
   21   81180000.000000000000         0.000000022006
   22   12174000.000000000000         0.000000170660
   23    2775000.000000000000         0.000000896488
   24     787190.000000000000         0.000003780755
   25     257190.000000000000         0.000013786974
   26      92980.000000000000         0.000045037557
   27      36316.000000000000         0.000135375960
   28      15086.000000000000         0.000377940885
   29       6592.600000000000         0.000991690912
   30       3007.200000000000         0.002426157880
   31       1422.900000000000         0.005518020692
   32        693.380000000000         0.011328951553
   33        347.150000000000         0.019555269338
   34        177.900000000000         0.025385049373
   35         92.353000000000         0.012292952131
   36         45.341000000000        -0.037539774233
   37         23.694000000000        -0.074798306832
   38         12.583000000000        -0.045981511142
   39          6.605000000000        -0.007269497844
   40          3.354100000000         0.000004919335
   41   81180000.000000000000         0.000000207147
   42   12174000.000000000000         0.000001607643
   43    2775000.000000000000         0.000008432695
   44     787190.000000000000         0.000035631130
   45     257190.000000000000         0.000129629153
   46      92980.000000000000         0.000424741947
   47      36316.000000000000         0.001272694753
   48      15086.000000000000         0.003570228060
   49       6592.600000000000         0.009338738871
   50       3007.200000000000         0.023053238453
   51       1422.900000000000         0.052448785627
   52        693.380000000000         0.110071749555
   53        347.150000000000         0.192840589584
   54        177.900000000000         0.267445125643
   55         92.353000000000         0.131993333519
   56         45.341000000000        -0.511113348383
   57         23.694000000000        -1.391759396046
   58         12.583000000000        -1.079102129278
   59          6.605000000000         0.858265137166
   60          3.354100000000         2.251600653670
   61   81180000.000000000000        -0.000000111637
   62   12174000.000000000000        -0.000000864961
   63    2775000.000000000000        -0.000004538548
   64     787190.000000000000        -0.000019170724
   65     257190.000000000000        -0.000069777733
   66      92980.000000000000        -0.000228506647
   67      36316.000000000000        -0.000685206812
   68      15086.000000000000        -0.001920839045
   69       6592.600000000000        -0.005030023383
   70       3007.200000000000        -0.012410325646
   71       1422.900000000000        -0.028299554148
   72        693.380000000000        -0.059421802760
   73        347.150000000000        -0.104721057011
   74        177.900000000000        -0.145881569539
   75         92.353000000000        -0.073603346492
   76         45.341000000000         0.292666219782
   77         23.694000000000         0.829654344026
   78         12.583000000000         0.694872952397
   79          6.605000000000        -0.640915014805
   80          3.354100000000        -2.269046997116
   81          1.662200000000        -0.066076408124
   82          0.654060000000         0.057934806144
   83          0.303170000000        -0.034345239076
   84          0.129700000000         0.009472005063
 S 84
    1   81180000.000000000000         0.000000123211
    2   12174000.000000000000         0.000000955750
    3    2775000.000000000000         0.000005017956
    4     787190.000000000000         0.000021173315
    5     257190.000000000000         0.000077117732
    6      92980.000000000000         0.000251911121
    7      36316.000000000000         0.000754416781
    8      15086.000000000000         0.002097065038
    9       6592.600000000000         0.005424765239
   10       3007.200000000000         0.012950589644
   11       1422.900000000000         0.027862739841
   12        693.380000000000         0.051652948608
   13        347.150000000000         0.073965330080
   14        177.900000000000         0.070008184921
   15         92.353000000000         0.032840606556
   16         45.341000000000         0.004038211161
   17         23.694000000000        -0.000276852230
   18         12.583000000000         0.000126130119
   19          6.605000000000        -0.000058620483
   20          3.354100000000         0.000027136400
   21   81180000.000000000000        -0.000000262230
   22   12174000.000000000000        -0.000002033662
   23    2775000.000000000000        -0.000010682964
   24     787190.000000000000        -0.000045053238
   25     257190.000000000000        -0.000164291991
   26      92980.000000000000        -0.000536688479
   27      36316.000000000000        -0.001613202924
   28      15086.000000000000        -0.004503719438
   29       6592.600000000000        -0.011817450335
   30       3007.200000000000        -0.028911226190
   31       1422.900000000000        -0.065755302086
   32        693.380000000000        -0.135001058043
   33        347.150000000000        -0.233029688465
   34        177.900000000000        -0.302500059942
   35         92.353000000000        -0.146488537484
   36         45.341000000000         0.447341416947
   37         23.694000000000         0.891331427726
   38         12.583000000000         0.547937081880
   39          6.605000000000         0.086626718798
   40          3.354100000000        -0.000058621085
   41   81180000.000000000000         0.000000360111
   42   12174000.000000000000         0.000002794774
   43    2775000.000000000000         0.000014659648
   44     787190.000000000000         0.000061942221
   45     257190.000000000000         0.000225351192
   46      92980.000000000000         0.000738384089
   47      36316.000000000000         0.002212490578
   48      15086.000000000000         0.006206591113
   49       6592.600000000000         0.016234742627
   50       3007.200000000000         0.040076438388
   51       1422.900000000000         0.091178535719
   52        693.380000000000         0.191352017566
   53        347.150000000000         0.335239841600
   54        177.900000000000         0.464934595722
   55         92.353000000000         0.229461153986
   56         45.341000000000        -0.888534713158
   57         23.694000000000        -2.419476109680
   58         12.583000000000        -1.875943377217
   59          6.605000000000         1.492033753135
   60          3.354100000000         3.914249837701
   61   81180000.000000000000        -0.000000122694
   62   12174000.000000000000        -0.000000950629
   63    2775000.000000000000        -0.000004988061
   64     787190.000000000000        -0.000021069460
   65     257190.000000000000        -0.000076688764
   66      92980.000000000000        -0.000251138745
   67      36316.000000000000        -0.000753072092
   68      15086.000000000000        -0.002111085664
   69       6592.600000000000        -0.005528214496
   70       3007.200000000000        -0.013639487713
   71       1422.900000000000        -0.031102440991
   72        693.380000000000        -0.065307145982
   73        347.150000000000        -0.115092996844
   74        177.900000000000        -0.160330190525
   75         92.353000000000        -0.080893279416
   76         45.341000000000         0.321652906027
   77         23.694000000000         0.911826212647
   78         12.583000000000         0.763695600484
   79          6.605000000000        -0.704393479992
   80          3.354100000000        -2.493781349542
   81          1.662200000000        -1.012340768733
   82          0.654060000000         0.579306470082
   83          0.303170000000        -0.309481508244
   84          0.129700000000         0.081281379026
 S 84
    1   81180000.000000000000        -0.000000109541
    2   12174000.000000000000        -0.000000849707
    3    2775000.000000000000        -0.000004461201
    4     787190.000000000000        -0.000018824081
    5     257190.000000000000        -0.000068561321
    6      92980.000000000000        -0.000223960931
    7      36316.000000000000        -0.000670712288
    8      15086.000000000000        -0.001864390249
    9       6592.600000000000        -0.004822873506
   10       3007.200000000000        -0.011513688231
   11       1422.900000000000        -0.024771296799
   12        693.380000000000        -0.045921920378
   13        347.150000000000        -0.065758685423
   14        177.900000000000        -0.062240595753
   15         92.353000000000        -0.029196856328
   16         45.341000000000        -0.003590161189
   17         23.694000000000         0.000246134760
   18         12.583000000000        -0.000112135656
   19          6.605000000000         0.000052116389
   20          3.354100000000        -0.000024125547
   21   81180000.000000000000         0.000000192142
   22   12174000.000000000000         0.000001490111
   23    2775000.000000000000         0.000007827652
   24     787190.000000000000         0.000033011541
   25     257190.000000000000         0.000120380510
   26      92980.000000000000         0.000393243956
   27      36316.000000000000         0.001182030778
   28      15086.000000000000         0.003299978514
   29       6592.600000000000         0.008658916864
   30       3007.200000000000         0.021183918436
   31       1422.900000000000         0.048180417773
   32        693.380000000000         0.098918371143
   33        347.150000000000         0.170746196696
   34        177.900000000000         0.221648731008
   35         92.353000000000         0.107335510766
   36         45.341000000000        -0.327777314863
   37         23.694000000000        -0.653098977571
   38         12.583000000000        -0.401486065472
   39          6.605000000000        -0.063473383432
   40          3.354100000000         0.000042953014
   41   81180000.000000000000        -0.000000049374
   42   12174000.000000000000        -0.000000383184
   43    2775000.000000000000        -0.000002009944
   44     787190.000000000000        -0.000008492726
   45     257190.000000000000        -0.000030897276
   46      92980.000000000000        -0.000101237791
   47      36316.000000000000        -0.000303348435
   48      15086.000000000000        -0.000850968460
   49       6592.600000000000        -0.002225900448
   50       3007.200000000000        -0.005494769101
   51       1422.900000000000        -0.012501235661
   52        693.380000000000        -0.026235743390
   53        347.150000000000        -0.045963803101
   54        177.900000000000        -0.063745890436
   55         92.353000000000        -0.031460781185
   56         45.341000000000         0.121824525417
   57         23.694000000000         0.331727646037
   58         12.583000000000         0.257205383485
   59          6.605000000000        -0.204568601755
   60          3.354100000000        -0.536671918134
   61   81180000.000000000000        -0.000000090916
   62   12174000.000000000000        -0.000000704414
   63    2775000.000000000000        -0.000003696140
   64     787190.000000000000        -0.000015612413
   65     257190.000000000000        -0.000056826166
   66      92980.000000000000        -0.000186093127
   67      36316.000000000000        -0.000558024374
   68      15086.000000000000        -0.001564308741
   69       6592.600000000000        -0.004096391921
   70       3007.200000000000        -0.010106823336
   71       1422.900000000000        -0.023046824267
   72        693.380000000000        -0.048392417728
   73        347.150000000000        -0.085283597944
   74        177.900000000000        -0.118804235549
   75         92.353000000000        -0.059941700254
   76         45.341000000000         0.238343929408
   77         23.694000000000         0.675660746064
   78         12.583000000000         0.565896364935
   79          6.605000000000        -0.521953654779
   80          3.354100000000        -1.847885204201
   81          1.662200000000         3.786853217662
   82          0.654060000000        -1.371051622981
   83          0.303170000000         0.691315927156
   84          0.129700000000        -0.175596655974
 S 84
    1   81180000.000000000000        -0.000000077912
    2   12174000.000000000000        -0.000000604360
    3    2775000.000000000000        -0.000003173058
    4     787190.000000000000        -0.000013388749
    5     257190.000000000000        -0.000048764680
    6      92980.000000000000        -0.000159293653
    7      36316.000000000000        -0.000477048429
    8      15086.000000000000        -0.001326059558
    9       6592.600000000000        -0.003430299806
   10       3007.200000000000        -0.008189184819
   11       1422.900000000000        -0.017618744197
   12        693.380000000000        -0.032662261275
   13        347.150000000000        -0.046771288019
   14        177.900000000000        -0.044269024110
   15         92.353000000000        -0.020766451880
   16         45.341000000000        -0.002553525241
   17         23.694000000000         0.000175064931
   18         12.583000000000        -0.000079757207
   19          6.605000000000         0.000037068117
   20          3.354100000000        -0.000017159450
   21   81180000.000000000000         0.000000118213
   22   12174000.000000000000         0.000000916772
   23    2775000.000000000000         0.000004815867
   24     787190.000000000000         0.000020309944
   25     257190.000000000000         0.000074062626
   26      92980.000000000000         0.000241938500
   27      36316.000000000000         0.000727229876
   28      15086.000000000000         0.002030271132
   29       6592.600000000000         0.005327291942
   30       3007.200000000000         0.013033144879
   31       1422.900000000000         0.029642408558
   32        693.380000000000         0.060858309388
   33        347.150000000000         0.105049494298
   34        177.900000000000         0.136366651525
   35         92.353000000000         0.066036850860
   36         45.341000000000        -0.201660955470
   37         23.694000000000        -0.401811101200
   38         12.583000000000        -0.247009356352
   39          6.605000000000        -0.039051217303
   40          3.354100000000         0.000026426313
   41   81180000.000000000000         0.000000053467
   42   12174000.000000000000         0.000000414948
   43    2775000.000000000000         0.000002176558
   44     787190.000000000000         0.000009196732
   45     257190.000000000000         0.000033458511
   46      92980.000000000000         0.000109629916
   47      36316.000000000000         0.000328494560
   48      15086.000000000000         0.000921509650
   49       6592.600000000000         0.002410416881
   50       3007.200000000000         0.005950259012
   51       1422.900000000000         0.013537527927
   52        693.380000000000         0.028410560240
   53        347.150000000000         0.049773981147
   54        177.900000000000         0.069030117934
   55         92.353000000000         0.034068728519
   56         45.341000000000        -0.131923192213
   57         23.694000000000        -0.359226271237
   58         12.583000000000        -0.278526471806
   59          6.605000000000         0.221526354219
   60          3.354100000000         0.581159437062
   61   81180000.000000000000        -0.000000128404
   62   12174000.000000000000        -0.000000994871
   63    2775000.000000000000        -0.000005220204
   64     787190.000000000000        -0.000022050023
   65     257190.000000000000        -0.000080257826
   66      92980.000000000000        -0.000262826634
   67      36316.000000000000        -0.000788119744
   68      15086.000000000000        -0.002209334686
   69       6592.600000000000        -0.005785495229
   70       3007.200000000000        -0.014274263626
   71       1422.900000000000        -0.032549935266
   72        693.380000000000        -0.068346512568
   73        347.150000000000        -0.120449375594
   74        177.900000000000        -0.167791888882
   75         92.353000000000        -0.084658017974
   76         45.341000000000         0.336622494429
   77         23.694000000000         0.954262213820
   78         12.583000000000         0.799237666448
   79          6.605000000000        -0.737175650682
   80          3.354100000000        -2.609840864839
   81          1.662200000000         5.034483347441
   82          0.654060000000        -4.494454170278
   83          0.303170000000         1.512292867152
   84          0.129700000000        -0.345696387366
 S 84
    1   81180000.000000000000        -0.000000052616
    2   12174000.000000000000        -0.000000408139
    3    2775000.000000000000        -0.000002142845
    4     787190.000000000000        -0.000009041756
    5     257190.000000000000        -0.000032932006
    6      92980.000000000000        -0.000107574981
    7      36316.000000000000        -0.000322162715
    8      15086.000000000000        -0.000895521129
    9       6592.600000000000        -0.002316567107
   10       3007.200000000000        -0.005530360977
   11       1422.900000000000        -0.011898377863
   12        693.380000000000        -0.022057640554
   13        347.150000000000        -0.031585818590
   14        177.900000000000        -0.029895977295
   15         92.353000000000        -0.014024103454
   16         45.341000000000        -0.001724459352
   17         23.694000000000         0.000118225719
   18         12.583000000000        -0.000053862033
   19          6.605000000000         0.000025033025
   20          3.354100000000        -0.000011588205
   21   81180000.000000000000         0.000000079841
   22   12174000.000000000000         0.000000619191
   23    2775000.000000000000         0.000003252650
   24     787190.000000000000         0.000013717394
   25     257190.000000000000         0.000050022109
   26      92980.000000000000         0.000163405955
   27      36316.000000000000         0.000491173137
   28      15086.000000000000         0.001371250926
   29       6592.600000000000         0.003598068205
   30       3007.200000000000         0.008802623304
   31       1422.900000000000         0.020020567469
   32        693.380000000000         0.041103876116
   33        347.150000000000         0.070950728718
   34        177.900000000000         0.092102426225
   35         92.353000000000         0.044601477828
   36         45.341000000000        -0.136202385745
   37         23.694000000000        -0.271384366272
   38         12.583000000000        -0.166830825322
   39          6.605000000000        -0.026375303789
   40          3.354100000000         0.000017848407
   41   81180000.000000000000         0.000000026683
   42   12174000.000000000000         0.000000207086
   43    2775000.000000000000         0.000001086245
   44     787190.000000000000         0.000004589771
   45     257190.000000000000         0.000016697986
   46      92980.000000000000         0.000054712502
   47      36316.000000000000         0.000163940280
   48      15086.000000000000         0.000459893613
   49       6592.600000000000         0.001202955746
   50       3007.200000000000         0.002969568594
   51       1422.900000000000         0.006756112245
   52        693.380000000000         0.014178728566
   53        347.150000000000         0.024840473484
   54        177.900000000000         0.034450545740
   55         92.353000000000         0.017002524771
   56         45.341000000000        -0.065838305126
   57         23.694000000000        -0.179277414822
   58         12.583000000000        -0.139002934426
   59          6.605000000000         0.110556146026
   60          3.354100000000         0.290036586458
   61   81180000.000000000000        -0.000000074645
   62   12174000.000000000000        -0.000000578346
   63    2775000.000000000000        -0.000003034649
   64     787190.000000000000        -0.000012818291
   65     257190.000000000000        -0.000046656102
   66      92980.000000000000        -0.000152788416
   67      36316.000000000000        -0.000458155877
   68      15086.000000000000        -0.001284347561
   69       6592.600000000000        -0.003363268921
   70       3007.200000000000        -0.008298025549
   71       1422.900000000000        -0.018922180613
   72        693.380000000000        -0.039731724334
   73        347.150000000000        -0.070020564437
   74        177.900000000000        -0.097542081140
   75         92.353000000000        -0.049214055062
   76         45.341000000000         0.195687997101
   77         23.694000000000         0.554739105148
   78         12.583000000000         0.464619033914
   79          6.605000000000        -0.428540661963
   80          3.354100000000        -1.517172916387
   81          1.662200000000         3.913513960492
   82          0.654060000000        -6.335742083591
   83          0.303170000000         4.965004440617
   84          0.129700000000        -0.821085595200
 S 84
    1   81180000.000000000000        -0.000000032072
    2   12174000.000000000000        -0.000000248783
    3    2775000.000000000000        -0.000001306179
    4     787190.000000000000        -0.000005511436
    5     257190.000000000000        -0.000020073825
    6      92980.000000000000        -0.000065572723
    7      36316.000000000000        -0.000196375462
    8      15086.000000000000        -0.000545868182
    9       6592.600000000000        -0.001412071960
   10       3007.200000000000        -0.003371051777
   11       1422.900000000000        -0.007252699780
   12        693.380000000000        -0.013445315541
   13        347.150000000000        -0.019253251341
   14        177.900000000000        -0.018223202394
   15         92.353000000000        -0.008548443595
   16         45.341000000000        -0.001051150510
   17         23.694000000000         0.000072064920
   18         12.583000000000        -0.000032831799
   19          6.605000000000         0.000015258972
   20          3.354100000000        -0.000007063633
   21   81180000.000000000000         0.000000052540
   22   12174000.000000000000         0.000000407465
   23    2775000.000000000000         0.000002140439
   24     787190.000000000000         0.000009026870
   25     257190.000000000000         0.000032917557
   26      92980.000000000000         0.000107530947
   27      36316.000000000000         0.000323221468
   28      15086.000000000000         0.000902365590
   29       6592.600000000000         0.002367745303
   30       3007.200000000000         0.005792655613
   31       1422.900000000000         0.013174737632
   32        693.380000000000         0.027048822884
   33        347.150000000000         0.046689847186
   34        177.900000000000         0.060608936422
   35         92.353000000000         0.029350455192
   36         45.341000000000        -0.089629362400
   37         23.694000000000        -0.178587236790
   38         12.583000000000        -0.109784717944
   39          6.605000000000        -0.017356536369
   40          3.354100000000         0.000011745325
   41   81180000.000000000000        -0.000000009153
   42   12174000.000000000000        -0.000000071032
   43    2775000.000000000000        -0.000000372588
   44     787190.000000000000        -0.000001574316
   45     257190.000000000000        -0.000005727500
   46      92980.000000000000        -0.000018766686
   47      36316.000000000000        -0.000056232409
   48      15086.000000000000        -0.000157746013
   49       6592.600000000000        -0.000412620369
   50       3007.200000000000        -0.001018578193
   51       1422.900000000000        -0.002317383278
   52        693.380000000000        -0.004863381082
   53        347.150000000000        -0.008520417628
   54        177.900000000000        -0.011816724725
   55         92.353000000000        -0.005831958552
   56         45.341000000000         0.022582897058
   57         23.694000000000         0.061493129205
   58         12.583000000000         0.047678763190
   59          6.605000000000        -0.037921359915
   60          3.354100000000        -0.099484128010
   61   81180000.000000000000        -0.000000022787
   62   12174000.000000000000        -0.000000176555
   63    2775000.000000000000        -0.000000926404
   64     787190.000000000000        -0.000003913108
   65     257190.000000000000        -0.000014242958
   66      92980.000000000000        -0.000046642537
   67      36316.000000000000        -0.000139863695
   68      15086.000000000000        -0.000392079648
   69       6592.600000000000        -0.001026723088
   70       3007.200000000000        -0.002533182633
   71       1422.900000000000        -0.005776475261
   72        693.380000000000        -0.012129115951
   73        347.150000000000        -0.021375552138
   74        177.900000000000        -0.029777192712
   75         92.353000000000        -0.015023837759
   76         45.341000000000         0.059738721308
   77         23.694000000000         0.169348173071
   78         12.583000000000         0.141836737012
   79          6.605000000000        -0.130822899479
   80          3.354100000000        -0.463155489199
   81          1.662200000000         2.066735185834
   82          0.654060000000        -4.533470221247
   83          0.303170000000         5.915636776306
   84          0.129700000000        -3.318111372937
 S 84
    1   81180000.000000000000         0.000003915923
    2   12174000.000000000000         0.000030375793
    3    2775000.000000000000         0.000159481377
    4     787190.000000000000         0.000672933269
    5     257190.000000000000         0.002450966552
    6      92980.000000000000         0.008006274464
    7      36316.000000000000         0.023976979571
    8      15086.000000000000         0.066649214164
    9       6592.600000000000         0.172410647053
   10       3007.200000000000         0.411597450198
   11       1422.900000000000         0.885537492088
   12        693.380000000000         1.641641232346
   13        347.150000000000         2.350776458954
   14        177.900000000000         2.225009918400
   15         92.353000000000         1.043744747775
   16         45.341000000000         0.128342991553
   17         23.694000000000        -0.008798956286
   18         12.583000000000         0.004008685064
   19          6.605000000000        -0.001863084375
   20          3.354100000000         0.000862452867
   21   81180000.000000000000        -0.000008485059
   22   12174000.000000000000        -0.000065803907
   23    2775000.000000000000        -0.000345672401
   24     787190.000000000000        -0.001457803424
   25     257190.000000000000        -0.005316053549
   26      92980.000000000000        -0.017365817228
   27      36316.000000000000        -0.052198972438
   28      15086.000000000000        -0.145728428367
   29       6592.600000000000        -0.382381382398
   30       3007.200000000000        -0.935490678935
   31       1422.900000000000        -2.127667356220
   32        693.380000000000        -4.368276551715
   33        347.150000000000        -7.540223304374
   34        177.900000000000        -9.788100462968
   35         92.353000000000        -4.739980950227
   36         45.341000000000        14.474783017133
   37         23.694000000000        28.841123410243
   38         12.583000000000        17.729792205212
   39          6.605000000000         2.803011101995
   40          3.354100000000        -0.001896823004
   41   81180000.000000000000         0.000013766538
   42   12174000.000000000000         0.000106840309
   43    2775000.000000000000         0.000560417820
   44     787190.000000000000         0.002367964308
   45     257190.000000000000         0.008614860291
   46      92980.000000000000         0.028227389100
   47      36316.000000000000         0.084580414626
   48      15086.000000000000         0.237269281452
   49       6592.600000000000         0.620631462217
   50       3007.200000000000         1.532066083773
   51       1422.900000000000         3.485627659582
   52        693.380000000000         7.315119505724
   53        347.150000000000        12.815749400386
   54        177.900000000000        17.773798119910
   55         92.353000000000         8.771978391862
   56         45.341000000000       -33.967437053541
   57         23.694000000000       -92.493181460505
   58         12.583000000000       -71.714686706079
   59          6.605000000000        57.038359718364
   60          3.354100000000       149.636286579476
   61   81180000.000000000000        -0.000008208444
   62   12174000.000000000000        -0.000063598761
   63    2775000.000000000000        -0.000333709971
   64     787190.000000000000        -0.001409583444
   65     257190.000000000000        -0.005130611458
   66      92980.000000000000        -0.016801618024
   67      36316.000000000000        -0.050381830385
   68      15086.000000000000        -0.141235296028
   69       6592.600000000000        -0.369847147487
   70       3007.200000000000        -0.912505408006
   71       1422.900000000000        -2.080807300372
   72        693.380000000000        -4.369161448214
   73        347.150000000000        -7.699921305865
   74        177.900000000000       -10.726368100985
   75         92.353000000000        -5.411900834626
   76         45.341000000000        21.519137846097
   77         23.694000000000        61.002756679590
   78         12.583000000000        51.092561551137
   79          6.605000000000       -47.125146733719
   80          3.354100000000      -166.838301825813
   81          1.662200000000        12.648255474101
   82          0.654060000000        -7.030812839524
   83          0.303170000000         3.777461059316
   84          0.129700000000        -1.004520071671
 P 49
    1      97285.000000000000         0.000007762889
    2      23066.000000000000         0.000069265487
    3       7508.300000000000         0.000405205148
    4       2884.200000000000         0.001848593318
    5       1235.000000000000         0.006997493335
    6        565.950000000000         0.023469743590
    7        273.290000000000         0.065047001597
    8        137.780000000000         0.152463856747
    9         71.579000000000         0.276075935638
   10         38.347000000000         0.353662390969
   11         20.853000000000         0.282731861836
   12         11.399000000000         0.111354140421
   13          5.944400000000         0.013233339345
   14          3.115000000000        -0.000409364218
   15          1.606000000000         0.000189492309
   16      97285.000000000000        -0.000002457868
   17      23066.000000000000        -0.000021899526
   18       7508.300000000000        -0.000128488719
   19       2884.200000000000        -0.000586616736
   20       1235.000000000000        -0.002237561798
   21        565.950000000000        -0.007571193373
   22        273.290000000000        -0.021490746146
   23        137.780000000000        -0.052025134829
   24         71.579000000000        -0.100217694832
   25         38.347000000000        -0.131517757081
   26         20.853000000000        -0.089377664313
   27         11.399000000000         0.113939518717
   28          5.944400000000         0.334484356976
   29          3.115000000000         0.350583134513
   30          1.606000000000         0.160510982305
   31      97285.000000000000         0.000002144851
   32      23066.000000000000         0.000019180676
   33       7508.300000000000         0.000112161764
   34       2884.200000000000         0.000513964384
   35       1235.000000000000         0.001955563831
   36        565.950000000000         0.006646629413
   37        273.290000000000         0.018859034807
   38        137.780000000000         0.046032591411
   39         71.579000000000         0.088933047077
   40         38.347000000000         0.118370995065
   41         20.853000000000         0.075824001176
   42         11.399000000000        -0.127168839293
   43          5.944400000000        -0.391946970363
   44          3.115000000000        -0.430002161671
   45          1.606000000000        -0.086929237003
   46          0.782220000000        -0.011212682134
   47          0.365320000000        -0.012996023045
   48          0.160620000000         0.010441530554
   49          0.067693000000        -0.003586783995
 P 49
    1      97285.000000000000        -0.000005082329
    2      23066.000000000000        -0.000045347802
    3       7508.300000000000        -0.000265285983
    4       2884.200000000000        -0.001210265707
    5       1235.000000000000        -0.004581227324
    6        565.950000000000        -0.015365535267
    7        273.290000000000        -0.042585978547
    8        137.780000000000        -0.099817399316
    9         71.579000000000        -0.180745669807
   10         38.347000000000        -0.231541172154
   11         20.853000000000        -0.185103274667
   12         11.399000000000        -0.072903053465
   13          5.944400000000        -0.008663807580
   14          3.115000000000         0.000268008907
   15          1.606000000000        -0.000124059760
   16      97285.000000000000         0.000021202539
   17      23066.000000000000         0.000188913936
   18       7508.300000000000         0.001108394287
   19       2884.200000000000         0.005060386972
   20       1235.000000000000         0.019302089220
   21        565.950000000000         0.065312095575
   22        273.290000000000         0.185387639319
   23        137.780000000000         0.448789300561
   24         71.579000000000         0.864517301398
   25         38.347000000000         1.134523964341
   26         20.853000000000         0.771006929331
   27         11.399000000000        -0.982887157890
   28          5.944400000000        -2.885393783384
   29          3.115000000000        -3.024268178124
   30          1.606000000000        -1.384630942672
   31      97285.000000000000        -0.000019088692
   32      23066.000000000000        -0.000170703727
   33       7508.300000000000        -0.000998214592
   34       2884.200000000000        -0.004574167968
   35       1235.000000000000        -0.017404080354
   36        565.950000000000        -0.059153513974
   37        273.290000000000        -0.167841188304
   38        137.780000000000        -0.409679759459
   39         71.579000000000        -0.791484211890
   40         38.347000000000        -1.053475359486
   41         20.853000000000        -0.674816637750
   42         11.399000000000         1.131774203773
   43          5.944400000000         3.488240301409
   44          3.115000000000         3.826922985638
   45          1.606000000000         0.773650750777
   46          0.782220000000         0.220972411261
   47          0.365320000000        -0.037161813536
   48          0.160620000000        -0.003777468659
   49          0.067693000000         0.003542395619
 P 49
    1      97285.000000000000        -0.000016000449
    2      23066.000000000000        -0.000142766286
    3       7508.300000000000        -0.000835187001
    4       2884.200000000000        -0.003810220867
    5       1235.000000000000        -0.014422855945
    6        565.950000000000        -0.048374569955
    7        273.290000000000        -0.134071372237
    8        137.780000000000        -0.314250280395
    9         71.579000000000        -0.569032832016
   10         38.347000000000        -0.728949850140
   11         20.853000000000        -0.582751668196
   12         11.399000000000        -0.229517149815
   13          5.944400000000        -0.027275845493
   14          3.115000000000         0.000843759452
   15          1.606000000000        -0.000390571330
   16      97285.000000000000         0.000068639827
   17      23066.000000000000         0.000611578625
   18       7508.300000000000         0.003588249065
   19       2884.200000000000         0.016382192718
   20       1235.000000000000         0.062487423833
   21        565.950000000000         0.211437453794
   22        273.290000000000         0.600162804110
   23        137.780000000000         1.452883515150
   24         71.579000000000         2.798736365136
   25         38.347000000000         3.672839711807
   26         20.853000000000         2.496011505380
   27         11.399000000000        -3.181939826031
   28          5.944400000000        -9.341000459139
   29          3.115000000000        -9.790584080097
   30          1.606000000000        -4.482521015231
   31      97285.000000000000        -0.000054036901
   32      23066.000000000000        -0.000483233762
   33       7508.300000000000        -0.002825778919
   34       2884.200000000000        -0.012948706144
   35       1235.000000000000        -0.049268046955
   36        565.950000000000        -0.167453726062
   37        273.290000000000        -0.475130393450
   38        137.780000000000        -1.159735028492
   39         71.579000000000        -2.240559714837
   40         38.347000000000        -2.982212930569
   41         20.853000000000        -1.910293282836
   42         11.399000000000         3.203863891625
   43          5.944400000000         9.874626148699
   44          3.115000000000        10.833380305759
   45          1.606000000000         2.190076162612
   46          0.782220000000         0.498115476693
   47          0.365320000000        -0.112856391634
   48          0.160620000000         0.014851627117
   49          0.067693000000        -0.000254028754
 P 49
    1      97285.000000000000        -0.000024566298
    2      23066.000000000000        -0.000219196292
    3       7508.300000000000        -0.001282304801
    4       2884.200000000000        -0.005850024610
    5       1235.000000000000        -0.022144139453
    6        565.950000000000        -0.074271921398
    7        273.290000000000        -0.205846551809
    8        137.780000000000        -0.482484333121
    9         71.579000000000        -0.873664857622
   10         38.347000000000        -1.119193535424
   11         20.853000000000        -0.894728079959
   12         11.399000000000        -0.352389276563
   13          5.944400000000        -0.041877983708
   14          3.115000000000         0.001295466517
   15          1.606000000000        -0.000599663896
   16      97285.000000000000         0.000102895305
   17      23066.000000000000         0.000916793823
   18       7508.300000000000         0.005379005159
   19       2884.200000000000         0.024557910427
   20       1235.000000000000         0.093672476191
   21        565.950000000000         0.316957695510
   22        273.290000000000         0.899680808239
   23        137.780000000000         2.177961390204
   24         71.579000000000         4.195477256824
   25         38.347000000000         5.505811719460
   26         20.853000000000         3.741674147676
   27         11.399000000000        -4.769922719050
   28          5.944400000000       -14.002731900897
   29          3.115000000000       -14.676685289386
   30          1.606000000000        -6.719573592893
   31      97285.000000000000        -0.000079428112
   32      23066.000000000000        -0.000710298793
   33       7508.300000000000        -0.004153574345
   34       2884.200000000000        -0.019033128628
   35       1235.000000000000        -0.072418438143
   36        565.950000000000        -0.246137974858
   37        273.290000000000        -0.698387761128
   38        137.780000000000        -1.704678886504
   39         71.579000000000        -3.293368524705
   40         38.347000000000        -4.383514589889
   41         20.853000000000        -2.807914347913
   42         11.399000000000         4.709316349948
   43          5.944400000000        14.514579877519
   44          3.115000000000        15.923839690092
   45          1.606000000000         3.219163431749
   46          0.782220000000         2.776948611228
   47          0.365320000000        -0.156818696328
   48          0.160620000000         0.030933281072
   49          0.067693000000        -0.004168076140
 P 49
    1      97285.000000000000        -0.000028897467
    2      23066.000000000000        -0.000257841766
    3       7508.300000000000        -0.001508381965
    4       2884.200000000000        -0.006881415095
    5       1235.000000000000        -0.026048269138
    6        565.950000000000        -0.087366456576
    7        273.290000000000        -0.242138394853
    8        137.780000000000        -0.567548889874
    9         71.579000000000        -1.027696623553
   10         38.347000000000        -1.316513314484
   11         20.853000000000        -1.052473404131
   12         11.399000000000        -0.414517382198
   13          5.944400000000        -0.049261295201
   14          3.115000000000         0.001523864162
   15          1.606000000000        -0.000705387834
   16      97285.000000000000         0.000120046610
   17      23066.000000000000         0.001069611392
   18       7508.300000000000         0.006275615138
   19       2884.200000000000         0.028651393685
   20       1235.000000000000         0.109286455812
   21        565.950000000000         0.369790407953
   22        273.290000000000         1.049645860693
   23        137.780000000000         2.540999137739
   24         71.579000000000         4.894808576472
   25         38.347000000000         6.423558697887
   26         20.853000000000         4.365362409872
   27         11.399000000000        -5.565006602370
   28          5.944400000000       -16.336804612890
   29          3.115000000000       -17.123097238062
   30          1.606000000000        -7.839638839474
   31      97285.000000000000        -0.000092155429
   32      23066.000000000000        -0.000824114888
   33       7508.300000000000        -0.004819130327
   34       2884.200000000000        -0.022082938640
   35       1235.000000000000        -0.084022546011
   36        565.950000000000        -0.285578367167
   37        273.290000000000        -0.810295268690
   38        137.780000000000        -1.977831390027
   39         71.579000000000        -3.821087771228
   40         38.347000000000        -5.085915490105
   41         20.853000000000        -3.257845909736
   42         11.399000000000         5.463922722478
   43          5.944400000000        16.840351530190
   44          3.115000000000        18.475426802183
   45          1.606000000000         3.734992282329
   46          0.782220000000         5.258922359083
   47          0.365320000000        -3.301166643288
   48          0.160620000000         0.374292487442
   49          0.067693000000        -0.076783418418
 P 49
    1      97285.000000000000        -0.000021486059
    2      23066.000000000000        -0.000191712423
    3       7508.300000000000        -0.001121523354
    4       2884.200000000000        -0.005116520826
    5       1235.000000000000        -0.019367602404
    6        565.950000000000        -0.064959356241
[...]
  BAS[ATNO][ 13].a[ 38] =        71.579000000000;     BAS[ATNO][ 13].d[ 38] =        -2.826650861819;
  BAS[ATNO][ 13].a[ 39] =        38.347000000000;     BAS[ATNO][ 13].d[ 39] =        -3.762307558464;
  BAS[ATNO][ 13].a[ 40] =        20.853000000000;     BAS[ATNO][ 13].d[ 40] =        -2.409992520394;
  BAS[ATNO][ 13].a[ 41] =        11.399000000000;     BAS[ATNO][ 13].d[ 41] =         4.041938525647;
  BAS[ATNO][ 13].a[ 42] =         5.944400000000;     BAS[ATNO][ 13].d[ 42] =        12.457655258428;
  BAS[ATNO][ 13].a[ 43] =         3.115000000000;     BAS[ATNO][ 13].d[ 43] =        13.667202697123;
  BAS[ATNO][ 13].a[ 44] =         1.606000000000;     BAS[ATNO][ 13].d[ 44] =         2.762961697250;
  BAS[ATNO][ 13].a[ 45] =         0.782220000000;     BAS[ATNO][ 13].d[ 45] =         4.779135135096;
  BAS[ATNO][ 13].a[ 46] =         0.365320000000;     BAS[ATNO][ 13].d[ 46] =        -5.117017095709;
  BAS[ATNO][ 13].a[ 47] =         0.160620000000;     BAS[ATNO][ 13].d[ 47] =         3.277216835353;
  BAS[ATNO][ 13].a[ 48] =         0.067693000000;     BAS[ATNO][ 13].d[ 48] =        -0.461502429054;

  // Basis function  15 L = p
  InitBFNGauss(BAS[ATNO][ 14]);
  BAS[ATNO][ 14].l  = 1;
  BAS[ATNO][ 14].ng = 49;
  BAS[ATNO][ 14].a[  0] =     97285.000000000000;     BAS[ATNO][ 14].d[  0] =        -0.000009662139;
  BAS[ATNO][ 14].a[  1] =     23066.000000000000;     BAS[ATNO][ 14].d[  1] =        -0.000086211811;
  BAS[ATNO][ 14].a[  2] =      7508.300000000000;     BAS[ATNO][ 14].d[  2] =        -0.000504341650;
  BAS[ATNO][ 14].a[  3] =      2884.200000000000;     BAS[ATNO][ 14].d[  3] =        -0.002300865646;
  BAS[ATNO][ 14].a[  4] =      1235.000000000000;     BAS[ATNO][ 14].d[  4] =        -0.008709482972;
  BAS[ATNO][ 14].a[  5] =       565.950000000000;     BAS[ATNO][ 14].d[  5] =        -0.029211793761;
  BAS[ATNO][ 14].a[  6] =       273.290000000000;     BAS[ATNO][ 14].d[  6] =        -0.080961242212;
  BAS[ATNO][ 14].a[  7] =       137.780000000000;     BAS[ATNO][ 14].d[  7] =        -0.189765291738;
  BAS[ATNO][ 14].a[  8] =        71.579000000000;     BAS[ATNO][ 14].d[  8] =        -0.343620000084;
  BAS[ATNO][ 14].a[  9] =        38.347000000000;     BAS[ATNO][ 14].d[  9] =        -0.440188568169;
  BAS[ATNO][ 14].a[ 10] =        20.853000000000;     BAS[ATNO][ 14].d[ 10] =        -0.351904348937;
  BAS[ATNO][ 14].a[ 11] =        11.399000000000;     BAS[ATNO][ 14].d[ 11] =        -0.138597772574;
  BAS[ATNO][ 14].a[ 12] =         5.944400000000;     BAS[ATNO][ 14].d[ 12] =        -0.016470975844;
  BAS[ATNO][ 14].a[ 13] =         3.115000000000;     BAS[ATNO][ 14].d[ 13] =         0.000509518268;
  BAS[ATNO][ 14].a[ 14] =         1.606000000000;     BAS[ATNO][ 14].d[ 14] =        -0.000235853035;
  BAS[ATNO][ 14].a[ 15] =     97285.000000000000;     BAS[ATNO][ 14].d[ 15] =         0.000039966453;
  BAS[ATNO][ 14].a[ 16] =     23066.000000000000;     BAS[ATNO][ 14].d[ 16] =         0.000356099800;
  BAS[ATNO][ 14].a[ 17] =      7508.300000000000;     BAS[ATNO][ 14].d[ 17] =         0.002089305808;
  BAS[ATNO][ 14].a[ 18] =      2884.200000000000;     BAS[ATNO][ 14].d[ 18] =         0.009538749895;
  BAS[ATNO][ 14].a[ 19] =      1235.000000000000;     BAS[ATNO][ 14].d[ 19] =         0.036384134760;
  BAS[ATNO][ 14].a[ 20] =       565.950000000000;     BAS[ATNO][ 14].d[ 20] =         0.123112273483;
  BAS[ATNO][ 14].a[ 21] =       273.290000000000;     BAS[ATNO][ 14].d[ 21] =         0.349452785911;
  BAS[ATNO][ 14].a[ 22] =       137.780000000000;     BAS[ATNO][ 14].d[ 22] =         0.845960776803;
  BAS[ATNO][ 14].a[ 23] =        71.579000000000;     BAS[ATNO][ 14].d[ 23] =         1.629601523335;
  BAS[ATNO][ 14].a[ 24] =        38.347000000000;     BAS[ATNO][ 14].d[ 24] =         2.138559838606;
  BAS[ATNO][ 14].a[ 25] =        20.853000000000;     BAS[ATNO][ 14].d[ 25] =         1.453335941926;
  BAS[ATNO][ 14].a[ 26] =        11.399000000000;     BAS[ATNO][ 14].d[ 26] =        -1.852726842104;
  BAS[ATNO][ 14].a[ 27] =         5.944400000000;     BAS[ATNO][ 14].d[ 27] =        -5.438921924661;
  BAS[ATNO][ 14].a[ 28] =         3.115000000000;     BAS[ATNO][ 14].d[ 28] =        -5.700697975706;
  BAS[ATNO][ 14].a[ 29] =         1.606000000000;     BAS[ATNO][ 14].d[ 29] =        -2.610007561197;
  BAS[ATNO][ 14].a[ 30] =     97285.000000000000;     BAS[ATNO][ 14].d[ 30] =        -0.000030596029;
  BAS[ATNO][ 14].a[ 31] =     23066.000000000000;     BAS[ATNO][ 14].d[ 31] =        -0.000273609957;
  BAS[ATNO][ 14].a[ 32] =      7508.300000000000;     BAS[ATNO][ 14].d[ 32] =        -0.001599973572;
  BAS[ATNO][ 14].a[ 33] =      2884.200000000000;     BAS[ATNO][ 14].d[ 33] =        -0.007331637831;
  BAS[ATNO][ 14].a[ 34] =      1235.000000000000;     BAS[ATNO][ 14].d[ 34] =        -0.027895874144;
  BAS[ATNO][ 14].a[ 35] =       565.950000000000;     BAS[ATNO][ 14].d[ 35] =        -0.094813339597;
  BAS[ATNO][ 14].a[ 36] =       273.290000000000;     BAS[ATNO][ 14].d[ 36] =        -0.269021779367;
  BAS[ATNO][ 14].a[ 37] =       137.780000000000;     BAS[ATNO][ 14].d[ 37] =        -0.656649175174;
  BAS[ATNO][ 14].a[ 38] =        71.579000000000;     BAS[ATNO][ 14].d[ 38] =        -1.268618824586;
  BAS[ATNO][ 14].a[ 39] =        38.347000000000;     BAS[ATNO][ 14].d[ 39] =        -1.688547481056;
  BAS[ATNO][ 14].a[ 40] =        20.853000000000;     BAS[ATNO][ 14].d[ 40] =        -1.081619919807;
  BAS[ATNO][ 14].a[ 41] =        11.399000000000;     BAS[ATNO][ 14].d[ 41] =         1.814047631675;
  BAS[ATNO][ 14].a[ 42] =         5.944400000000;     BAS[ATNO][ 14].d[ 42] =         5.591074647569;
  BAS[ATNO][ 14].a[ 43] =         3.115000000000;     BAS[ATNO][ 14].d[ 43] =         6.133927205232;
  BAS[ATNO][ 14].a[ 44] =         1.606000000000;     BAS[ATNO][ 14].d[ 44] =         1.240034723810;
  BAS[ATNO][ 14].a[ 45] =         0.782220000000;     BAS[ATNO][ 14].d[ 45] =         2.344006625754;
  BAS[ATNO][ 14].a[ 46] =         0.365320000000;     BAS[ATNO][ 14].d[ 46] =        -3.154935598428;
  BAS[ATNO][ 14].a[ 47] =         0.160620000000;     BAS[ATNO][ 14].d[ 47] =         3.456509927897;
  BAS[ATNO][ 14].a[ 48] =         0.067693000000;     BAS[ATNO][ 14].d[ 48] =        -2.281606411198;

  // Basis function  16 L = d
  InitBFNGauss(BAS[ATNO][ 15]);
  BAS[ATNO][ 15].l  = 2;
  BAS[ATNO][ 15].ng = 13;
  BAS[ATNO][ 15].a[  0] =      2219.700000000000;     BAS[ATNO][ 15].d[  0] =        -0.000066121729;
  BAS[ATNO][ 15].a[  1] =       670.130000000000;     BAS[ATNO][ 15].d[  1] =        -0.000670950203;
  BAS[ATNO][ 15].a[  2] =       263.090000000000;     BAS[ATNO][ 15].d[  2] =        -0.003994631135;
  BAS[ATNO][ 15].a[  3] =       116.690000000000;     BAS[ATNO][ 15].d[  3] =        -0.018280005330;
  BAS[ATNO][ 15].a[  4] =        54.856000000000;     BAS[ATNO][ 15].d[  4] =        -0.064411181907;
  BAS[ATNO][ 15].a[  5] =        27.847000000000;     BAS[ATNO][ 15].d[  5] =        -0.153732973474;
  BAS[ATNO][ 15].a[  6] =        14.745000000000;     BAS[ATNO][ 15].d[  6] =        -0.299717233336;
  BAS[ATNO][ 15].a[  7] =         7.882700000000;     BAS[ATNO][ 15].d[  7] =        -0.428868729403;
  BAS[ATNO][ 15].a[  8] =         4.170300000000;     BAS[ATNO][ 15].d[  8] =        -0.470188932819;
  BAS[ATNO][ 15].a[  9] =         2.168200000000;     BAS[ATNO][ 15].d[  9] =         0.638405137466;
  BAS[ATNO][ 15].a[ 10] =         1.103200000000;     BAS[ATNO][ 15].d[ 10] =        -0.471159513986;
  BAS[ATNO][ 15].a[ 11] =         0.523790000000;     BAS[ATNO][ 15].d[ 11] =         0.216204635209;
  BAS[ATNO][ 15].a[ 12] =         0.218000000000;     BAS[ATNO][ 15].d[ 12] =        -0.059538789550;

  // Basis function  17 L = d
  InitBFNGauss(BAS[ATNO][ 16]);
  BAS[ATNO][ 16].l  = 2;
  BAS[ATNO][ 16].ng = 13;
  BAS[ATNO][ 16].a[  0] =      2219.700000000000;     BAS[ATNO][ 16].d[  0] =        -0.000029929145;
  BAS[ATNO][ 16].a[  1] =       670.130000000000;     BAS[ATNO][ 16].d[  1] =        -0.000303696926;
  BAS[ATNO][ 16].a[  2] =       263.090000000000;     BAS[ATNO][ 16].d[  2] =        -0.001808118082;
  BAS[ATNO][ 16].a[  3] =       116.690000000000;     BAS[ATNO][ 16].d[  3] =        -0.008274207819;
  BAS[ATNO][ 16].a[  4] =        54.856000000000;     BAS[ATNO][ 16].d[  4] =        -0.029154887832;
  BAS[ATNO][ 16].a[  5] =        27.847000000000;     BAS[ATNO][ 16].d[  5] =        -0.069585240715;
  BAS[ATNO][ 16].a[  6] =        14.745000000000;     BAS[ATNO][ 16].d[  6] =        -0.135663126503;
  BAS[ATNO][ 16].a[  7] =         7.882700000000;     BAS[ATNO][ 16].d[  7] =        -0.194121879621;
  BAS[ATNO][ 16].a[  8] =         4.170300000000;     BAS[ATNO][ 16].d[  8] =        -0.212824934900;
  BAS[ATNO][ 16].a[  9] =         2.168200000000;     BAS[ATNO][ 16].d[  9] =         1.791896115220;
  BAS[ATNO][ 16].a[ 10] =         1.103200000000;     BAS[ATNO][ 16].d[ 10] =        -0.873821336667;
  BAS[ATNO][ 16].a[ 11] =         0.523790000000;     BAS[ATNO][ 16].d[ 11] =         0.386237663413;
  BAS[ATNO][ 16].a[ 12] =         0.218000000000;     BAS[ATNO][ 16].d[ 12] =        -0.103034566132;

  // Basis function  18 L = d
  InitBFNGauss(BAS[ATNO][ 17]);
  BAS[ATNO][ 17].l  = 2;
  BAS[ATNO][ 17].ng = 13;
  BAS[ATNO][ 17].a[  0] =      2219.700000000000;     BAS[ATNO][ 17].d[  0] =         0.000015822094;
  BAS[ATNO][ 17].a[  1] =       670.130000000000;     BAS[ATNO][ 17].d[  1] =         0.000160549907;
  BAS[ATNO][ 17].a[  2] =       263.090000000000;     BAS[ATNO][ 17].d[  2] =         0.000955864762;
  BAS[ATNO][ 17].a[  3] =       116.690000000000;     BAS[ATNO][ 17].d[  3] =         0.004374174323;
  BAS[ATNO][ 17].a[  4] =        54.856000000000;     BAS[ATNO][ 17].d[  4] =         0.015412782049;
  BAS[ATNO][ 17].a[  5] =        27.847000000000;     BAS[ATNO][ 17].d[  5] =         0.036786358266;
  BAS[ATNO][ 17].a[  6] =        14.745000000000;     BAS[ATNO][ 17].d[  6] =         0.071718547262;
  BAS[ATNO][ 17].a[  7] =         7.882700000000;     BAS[ATNO][ 17].d[  7] =         0.102622868550;
  BAS[ATNO][ 17].a[  8] =         4.170300000000;     BAS[ATNO][ 17].d[  8] =         0.112510271182;
  BAS[ATNO][ 17].a[  9] =         2.168200000000;     BAS[ATNO][ 17].d[  9] =        -1.742850787365;
  BAS[ATNO][ 17].a[ 10] =         1.103200000000;     BAS[ATNO][ 17].d[ 10] =         2.368744028219;
  BAS[ATNO][ 17].a[ 11] =         0.523790000000;     BAS[ATNO][ 17].d[ 11] =        -0.475481555722;
  BAS[ATNO][ 17].a[ 12] =         0.218000000000;     BAS[ATNO][ 17].d[ 12] =         0.125496975185;

  // Basis function  19 L = d
  InitBFNGauss(BAS[ATNO][ 18]);
  BAS[ATNO][ 18].l  = 2;
  BAS[ATNO][ 18].ng = 13;
  BAS[ATNO][ 18].a[  0] =      2219.700000000000;     BAS[ATNO][ 18].d[  0] =         0.000008889720;
  BAS[ATNO][ 18].a[  1] =       670.130000000000;     BAS[ATNO][ 18].d[  1] =         0.000090205738;
  BAS[ATNO][ 18].a[  2] =       263.090000000000;     BAS[ATNO][ 18].d[  2] =         0.000537057219;
  BAS[ATNO][ 18].a[  3] =       116.690000000000;     BAS[ATNO][ 18].d[  3] =         0.002457650907;
  BAS[ATNO][ 18].a[  4] =        54.856000000000;     BAS[ATNO][ 18].d[  4] =         0.008659745815;
  BAS[ATNO][ 18].a[  5] =        27.847000000000;     BAS[ATNO][ 18].d[  5] =         0.020668592537;
  BAS[ATNO][ 18].a[  6] =        14.745000000000;     BAS[ATNO][ 18].d[  6] =         0.040295411141;
  BAS[ATNO][ 18].a[  7] =         7.882700000000;     BAS[ATNO][ 18].d[  7] =         0.057659152877;
  BAS[ATNO][ 18].a[  8] =         4.170300000000;     BAS[ATNO][ 18].d[  8] =         0.063214437658;
  BAS[ATNO][ 18].a[  9] =         2.168200000000;     BAS[ATNO][ 18].d[  9] =        -1.298807643569;
  BAS[ATNO][ 18].a[ 10] =         1.103200000000;     BAS[ATNO][ 18].d[ 10] =         2.756077577381;
  BAS[ATNO][ 18].a[ 11] =         0.523790000000;     BAS[ATNO][ 18].d[ 11] =        -2.336462963202;
  BAS[ATNO][ 18].a[ 12] =         0.218000000000;     BAS[ATNO][ 18].d[ 12] =         0.217137829535;

  // Basis function  20 L = d
  InitBFNGauss(BAS[ATNO][ 19]);
  BAS[ATNO][ 19].l  = 2;
  BAS[ATNO][ 19].ng = 13;
  BAS[ATNO][ 19].a[  0] =      2219.700000000000;     BAS[ATNO][ 19].d[  0] =        -0.000004274739;
  BAS[ATNO][ 19].a[  1] =       670.130000000000;     BAS[ATNO][ 19].d[  1] =        -0.000043376623;
  BAS[ATNO][ 19].a[  2] =       263.090000000000;     BAS[ATNO][ 19].d[  2] =        -0.000258251071;
  BAS[ATNO][ 19].a[  3] =       116.690000000000;     BAS[ATNO][ 19].d[  3] =        -0.001181793961;
  BAS[ATNO][ 19].a[  4] =        54.856000000000;     BAS[ATNO][ 19].d[  4] =        -0.004164153369;
  BAS[ATNO][ 19].a[  5] =        27.847000000000;     BAS[ATNO][ 19].d[  5] =        -0.009938766228;
  BAS[ATNO][ 19].a[  6] =        14.745000000000;     BAS[ATNO][ 19].d[  6] =        -0.019376581675;
  BAS[ATNO][ 19].a[  7] =         7.882700000000;     BAS[ATNO][ 19].d[  7] =        -0.027726166663;
  BAS[ATNO][ 19].a[  8] =         4.170300000000;     BAS[ATNO][ 19].d[  8] =        -0.030397498863;
  BAS[ATNO][ 19].a[  9] =         2.168200000000;     BAS[ATNO][ 19].d[  9] =         0.690257999106;
  BAS[ATNO][ 19].a[ 10] =         1.103200000000;     BAS[ATNO][ 19].d[ 10] =        -1.755389719203;
  BAS[ATNO][ 19].a[ 11] =         0.523790000000;     BAS[ATNO][ 19].d[ 11] =         2.350335104127;
  BAS[ATNO][ 19].a[ 12] =         0.218000000000;     BAS[ATNO][ 19].d[ 12] =        -1.795161879226;

  // Basis function  21 L = f
  InitBFNGauss(BAS[ATNO][ 20]);
  BAS[ATNO][ 20].l  = 3;
  BAS[ATNO][ 20].ng = 4;
  BAS[ATNO][ 20].a[  0] =         8.460000000000;     BAS[ATNO][ 20].d[  0] =         0.821314446104;
  BAS[ATNO][ 20].a[  1] =         2.490000000000;     BAS[ATNO][ 20].d[  1] =         0.321264963049;
  BAS[ATNO][ 20].a[  2] =         0.730000000000;     BAS[ATNO][ 20].d[  2] =        -0.050317658727;
  BAS[ATNO][ 20].a[  3] =         0.293000000000;     BAS[ATNO][ 20].d[  3] =         0.019187491458;

  // Basis function  22 L = f
  InitBFNGauss(BAS[ATNO][ 21]);
  BAS[ATNO][ 21].l  = 3;
  BAS[ATNO][ 21].ng = 4;
  BAS[ATNO][ 21].a[  0] =         8.460000000000;     BAS[ATNO][ 21].d[  0] =        -0.703814209798;
  BAS[ATNO][ 21].a[  1] =         2.490000000000;     BAS[ATNO][ 21].d[  1] =         0.960157195120;
  BAS[ATNO][ 21].a[  2] =         0.730000000000;     BAS[ATNO][ 21].d[  2] =         0.218915231678;
  BAS[ATNO][ 21].a[  3] =         0.293000000000;     BAS[ATNO][ 21].d[  3] =        -0.056598028772;

  // Basis function  23 L = f
  InitBFNGauss(BAS[ATNO][ 22]);
  BAS[ATNO][ 22].l  = 3;
  BAS[ATNO][ 22].ng = 4;
  BAS[ATNO][ 22].a[  0] =         8.460000000000;     BAS[ATNO][ 22].d[  0] =         0.353918938804;
  BAS[ATNO][ 22].a[  1] =         2.490000000000;     BAS[ATNO][ 22].d[  1] =        -0.786243659996;
  BAS[ATNO][ 22].a[  2] =         0.730000000000;     BAS[ATNO][ 22].d[  2] =         1.209445515630;
  BAS[ATNO][ 22].a[  3] =         0.293000000000;     BAS[ATNO][ 22].d[  3] =        -0.122360238024;

  // Basis function  24 L = f
  InitBFNGauss(BAS[ATNO][ 23]);
  BAS[ATNO][ 23].l  = 3;
  BAS[ATNO][ 23].ng = 4;
  BAS[ATNO][ 23].a[  0] =         8.460000000000;     BAS[ATNO][ 23].d[  0] =        -0.119580143831;
  BAS[ATNO][ 23].a[  1] =         2.490000000000;     BAS[ATNO][ 23].d[  1] =         0.319042703583;
  BAS[ATNO][ 23].a[  2] =         0.730000000000;     BAS[ATNO][ 23].d[  2] =        -0.891447943560;
  BAS[ATNO][ 23].a[  3] =         0.293000000000;     BAS[ATNO][ 23].d[  3] =         1.338195154238;

  // Basis function  25 L = g
  InitBFNGauss(BAS[ATNO][ 24]);
  BAS[ATNO][ 24].l  = 4;
  BAS[ATNO][ 24].ng = 2;
  BAS[ATNO][ 24].a[  0] =         2.250000000000;     BAS[ATNO][ 24].d[  0] =         0.994055180970;
  BAS[ATNO][ 24].a[  1] =         0.560000000000;     BAS[ATNO][ 24].d[  1] =         0.019815591504;

  // Basis function  26 L = g
  InitBFNGauss(BAS[ATNO][ 25]);
  BAS[ATNO][ 25].l  = 4;
  BAS[ATNO][ 25].ng = 2;
  BAS[ATNO][ 25].a[  0] =         2.250000000000;     BAS[ATNO][ 25].d[  0] =        -0.322995274338;
  BAS[ATNO][ 25].a[  1] =         0.560000000000;     BAS[ATNO][ 25].d[  1] =         1.045025833361;

  // Basis function  27 L = h
  InitBFNGauss(BAS[ATNO][ 26]);
  BAS[ATNO][ 26].l  = 5;
  BAS[ATNO][ 26].ng = 1;
  BAS[ATNO][ 26].a[  0] =         0.840000000000;     BAS[ATNO][ 26].d[  0] =         1.000000000000;

-------
TIMINGS
-------

Total SCF time: 0 days 0 hours 0 min 11 sec 

Total time                  ....      11.244 sec
Sum of individual times     ....      10.856 sec  ( 96.5%)

Fock matrix formation       ....      10.105 sec  ( 89.9%)
  XC integration            ....       0.059 sec  (  0.6% of F)
    Basis function eval.    ....       0.014 sec  ( 23.9% of XC)
    Density eval.           ....       0.005 sec  (  8.3% of XC)
    XC-Functional eval.     ....       0.002 sec  (  3.9% of XC)
    XC-Potential eval.      ....       0.011 sec  ( 19.1% of XC)
Diagonalization             ....       0.005 sec  (  0.0%)
Density matrix formation    ....       0.002 sec  (  0.0%)
Population analysis         ....       0.002 sec  (  0.0%)
Initial guess               ....       0.081 sec  (  0.7%)
Orbital Transformation      ....       0.000 sec  (  0.0%)
Orbital Orthonormalization  ....       0.000 sec  (  0.0%)
DIIS solution               ....       0.001 sec  (  0.0%)
SOSCF solution              ....       0.003 sec  (  0.0%)
Grid generation             ....       0.657 sec  (  5.8%)

-------------------------   --------------------
FINAL SINGLE POINT ENERGY     -1273.430950109433
-------------------------   --------------------


                            ***************************************
                            *     ORCA property calculations      *
                            ***************************************

                                    ---------------------
                                    Active property flags
                                    ---------------------
   (+) Dipole Moment


------------------------------------------------------------------------------
                       ORCA ELECTRIC PROPERTIES CALCULATION
------------------------------------------------------------------------------

Dipole Moment Calculation                       ... on
Quadrupole Moment Calculation                   ... off
Polarizability Calculation                      ... off
GBWName                                         ... Kr_pc-4_548.143956_.gbw
Electron density file                           ... Kr_pc-4_548.143956_.scfp
The origin for moment calculation is the CENTER OF MASS  = ( 0.000000,  0.000000  0.000000)

-------------
DIPOLE MOMENT
-------------
                                X             Y             Z
Electronic contribution:     -0.00000      -0.00000       0.00000
Nuclear contribution   :      0.00000       0.00000       0.00000
                        -----------------------------------------
Total Dipole Moment    :     -0.00000      -0.00000       0.00000
                        -----------------------------------------
Magnitude (a.u.)       :      0.00000
Magnitude (Debye)      :      0.00000



--------------------
Rotational spectrum 
--------------------
 
Rotational constants in cm-1:     0.000000     0.000000     0.000000 
Rotational constants in MHz :     0.000000     0.000000     0.000000 

 Dipole components along the rotational axes: 
x,y,z [a.u.] :    -0.000000    -0.000000     0.000000 
x,y,z [Debye]:    -0.000000    -0.000000     0.000000 

 

Timings for individual modules:

Sum of individual times         ...       14.334 sec (=   0.239 min)
GTO integral calculation        ...        2.261 sec (=   0.038 min)  15.8 %
Relativistic integrals          ...        0.517 sec (=   0.009 min)   3.6 %
SCF iterations                  ...       11.555 sec (=   0.193 min)  80.6 %
                             ****ORCA TERMINATED NORMALLY****
TOTAL RUN TIME: 0 days 0 hours 0 minutes 14 seconds 744 msec
