
                                 *****************
                                 * O   R   C   A *
                                 *****************

           --- An Ab Initio, DFT and Semiempirical electronic structure package ---

                  #######################################################
                  #                        -***-                        #
                  #          Department of theory and spectroscopy      #
                  #               Directorship: Frank Neese             #
                  #        Max Planck Institute fuer Kohlenforschung    #
                  #                Kaiser Wilhelm Platz 1               #
                  #                 D-45470 Muelheim/Ruhr               #
                  #                      Germany                        #
                  #                                                     #
                  #                  All rights reserved                #
                  #                        -***-                        #
                  #######################################################


                         Program Version 4.2.1 -  RELEASE  -


 With contributions from (in alphabetic order):
   Daniel Aravena         : Magnetic Suceptibility
   Michael Atanasov       : Ab Initio Ligand Field Theory (pilot matlab implementation)
   Alexander A. Auer      : GIAO ZORA, VPT2
   Ute Becker             : Parallelization
   Giovanni Bistoni       : ED, misc. LED, open-shell LED, HFLD
   Martin Brehm           : Molecular dynamics
   Dmytro Bykov           : SCF Hessian
   Vijay G. Chilkuri      : MRCI spin determinant printing, contributions to CSF-ICE
   Dipayan Datta          : RHF DLPNO-CCSD density
   Achintya Kumar Dutta   : EOM-CC, STEOM-CC
   Dmitry Ganyushin       : Spin-Orbit,Spin-Spin,Magnetic field MRCI
   Miquel Garcia          : C-PCM Hessian, Gaussian charge scheme
   Yang Guo               : DLPNO-NEVPT2, CIM, IAO-localization
   Andreas Hansen         : Spin unrestricted coupled pair/coupled cluster methods
   Benjamin Helmich-Paris : CASSCF linear response (MC-RPA)
   Lee Huntington         : MR-EOM, pCC
   Robert Izsak           : Overlap fitted RIJCOSX, COSX-SCS-MP3, EOM
   Christian Kollmar      : KDIIS, OOCD, Brueckner-CCSD(T), CCSD density
   Simone Kossmann        : Meta GGA functionals, TD-DFT gradient, OOMP2, MP2 Hessian
   Martin Krupicka        : AUTO-CI
   Lucas Lang             : DCDCAS
   Dagmar Lenk            : GEPOL surface, SMD
   Dimitrios Liakos       : Extrapolation schemes; Compound Job, initial MDCI parallelization
   Dimitrios Manganas     : Further ROCIS development; embedding schemes
   Dimitrios Pantazis     : SARC Basis sets
   Taras Petrenko         : DFT Hessian,TD-DFT gradient, ASA, ECA, R-Raman, ABS, FL, XAS/XES, NRVS
   Peter Pinski           : DLPNO-MP2, DLPNO-MP2 Gradient
   Christoph Reimann      : Effective Core Potentials
   Marius Retegan         : Local ZFS, SOC
   Christoph Riplinger    : Optimizer, TS searches, QM/MM, DLPNO-CCSD(T), (RO)-DLPNO pert. Triples
   Tobias Risthaus        : Range-separated hybrids, TD-DFT gradient, RPA, STAB
   Michael Roemelt        : Original ROCIS implementation
   Masaaki Saitow         : Open-shell DLPNO-CCSD energy and density
   Barbara Sandhoefer     : DKH picture change effects
   Avijit Sen             : IP-ROCIS
   Kantharuban Sivalingam : CASSCF convergence, NEVPT2, FIC-MRCI
   Bernardo de Souza      : ESD, SOC TD-DFT
   Georgi Stoychev        : AutoAux, RI-MP2 NMR
   Willem Van den Heuvel  : Paramagnetic NMR
   Boris Wezisla          : Elementary symmetry handling
   Frank Wennmohs         : Technical directorship


 We gratefully acknowledge several colleagues who have allowed us to
 interface, adapt or use parts of their codes:
   Stefan Grimme, W. Hujo, H. Kruse,             : VdW corrections, initial TS optimization,
                  C. Bannwarth                     DFT functionals, gCP, sTDA/sTD-DF
   Ed Valeev, F. Pavosevic, A. Kumar             : LibInt (2-el integral package), F12 methods
   Garnet Chan, S. Sharma, J. Yang, R. Olivares  : DMRG
   Ulf Ekstrom                                   : XCFun DFT Library
   Mihaly Kallay                                 : mrcc  (arbitrary order and MRCC methods)
   Andreas Klamt, Michael Diedenhofen            : otool_cosmo (COSMO solvation model)
   Jiri Pittner, Ondrej Demel                    : Mk-CCSD
   Frank Weinhold                                : gennbo (NPA and NBO analysis)
   Christopher J. Cramer and Donald G. Truhlar   : smd solvation model
   Lars Goerigk                                  : TD-DFT with DH, B97 family of functionals
   V. Asgeirsson, H. Jonsson                     : NEB implementation
   FAccTs GmbH                                   : IRC, NEB, NEB-TS, Multilevel, MM, QM/MM, CI optimization
   S Lehtola, MJT Oliveira, MAL Marques          : LibXC Library


 Your calculation uses the libint2 library for the computation of 2-el integrals
 For citations please refer to: http://libint.valeyev.net

 Your ORCA version has been built with support for libXC version: 4.2.3
 For citations please refer to: https://tddft.org/programs/libxc/

 This ORCA versions uses:
   CBLAS   interface :  Fast vector & matrix operations
   LAPACKE interface :  Fast linear algebra routines
   SCALAPACK package :  Parallel linear algebra routines


----- Orbital basis set information -----
Your calculation utilizes the basis: pc-4
   H, C-F              : F. Jensen, J. Chem. Phys. 115, 9113 (2001).
                         F. Jensen, J. Chem. Phys. 116, 7372 (2002).
                         F. Jensen, J. Chem. Phys. 117, 9234 (2002).
   Si-Cl               : F. Jensen, T. Helgaker, J. Chem. Phys. 121, 3463 (2004).
   He-B, Ne-Mg, Al, Ar : F. Jensen, J. Phys. Chem. A 111, 11198 (2007).
   K, Ca, Ga-Kr        : F. Jensen, J. Chem. Phys. 136, 094110 (2012).
   Sc-Zn               : F. Jensen, J. Chem. Phys. 138, 014107 (2013).

================================================================================
                                        WARNINGS
                       Please study these warnings very carefully!
================================================================================


INFO   : the flag for use of LIBINT has been found!

================================================================================
                                       INPUT FILE
================================================================================
NAME = Kr_pc-4_68.5179945_.inp
|  1> ! LDA pc-4 nori grid5 finalgrid6 verytightscf
|  2> %Pal NProcs 18 End
|  3> 
|  4> % REL
|  5>   Method ZORA
|  6>   ModelPot 1, 0, 0, 0
|  7>   velit 68.5179945
|  8> END
|  9> 
| 10> *xyz 34 1
| 11> Kr 0.0 0.0 0.0
| 12> **                         ****END OF INPUT****
================================================================================

                       ****************************
                       * Single Point Calculation *
                       ****************************

---------------------------------
CARTESIAN COORDINATES (ANGSTROEM)
---------------------------------
  Kr     0.000000    0.000000    0.000000

----------------------------
CARTESIAN COORDINATES (A.U.)
----------------------------
  NO LB      ZA    FRAG     MASS         X           Y           Z
   0 Kr   36.0000    0    83.800    0.000000    0.000000    0.000000

--------------------------------
INTERNAL COORDINATES (ANGSTROEM)
--------------------------------
 Kr     0   0   0     0.000000000000     0.00000000     0.00000000

---------------------------
INTERNAL COORDINATES (A.U.)
---------------------------
 Kr     0   0   0     0.000000000000     0.00000000     0.00000000

---------------------
BASIS SET INFORMATION
---------------------
There are 1 groups of distinct atoms

 Group   1 Type Kr  : 84s49p13d4f2g1h contracted to 8s7p5d4f2g1h pattern {202020201111/1515151111/91111/1111/11/1}

Atom   0Kr   basis set group =>   1


           ************************************************************
           *        Program running with 18 parallel MPI-processes    *
           *              working on a common directory               *
           ************************************************************
------------------------------------------------------------------------------
                           ORCA GTO INTEGRAL CALCULATION
------------------------------------------------------------------------------

                         BASIS SET STATISTICS AND STARTUP INFO

 # of primitive gaussian shells          ...  153
 # of primitive gaussian functions       ...  353
 # of contracted shells                  ...   27
 # of contracted basis functions         ...  111
 Highest angular momentum                ...    5
 Maximum contraction depth               ...   20
 Integral package used                   ... LIBINT
 Integral threshhold            Thresh   ...  1.000e-12
 Primitive cut-off              TCut     ...  1.000e-14


------------------------------ INTEGRAL EVALUATION ----------------------------


 * One electron integrals 
 Pre-screening matrix                    ... done
 Shell pair data                         ... done (   0.000 sec)



           ************************************************************
           *        Program running with 18 parallel MPI-processes    *
           *              working on a common directory               *
           ************************************************************
------------------------------------------------------------------------------
                          ORCA RELATIVISTIC HAMILTONIAN
------------------------------------------------------------------------------

Relativistic Method            ... ZORA(MP)
Treatment of potential         ... Van Wuellen
Nucleus model                  ... Point Nucleus
Speed of light used            ...  68.51799450000000


            *************************************************
            *         ZERO ORDER REGULAR APPROXIMATION      *
            *                     ZORA(MP)                  *
            *            Programmed by FN according to      *
            *                   C. van Wuellen              *
            *       J. Chem. Phys. (1998) vol 109, 392-399  *
            *************************************************

Terms included in model potential: +V(e,N)
Basis function cutoff value   ... 1.000000e-12
Loading the fitted atomic densities  (DKH4)  ... done
Calculating the cutoffs                      ... done
Number of fit functions                      ... 27
Setting up the integration grid ... done


           ************************************************************
           *        Program running with 18 parallel MPI-processes    *
           *              working on a common directory               *
           ************************************************************
-------------------------------------------------------------------------------
                                 ORCA SCF
-------------------------------------------------------------------------------

------------
SCF SETTINGS
------------
Hamiltonian:
 Density Functional     Method          .... DFT(GTOs)
 Exchange Functional    Exchange        .... Slater
   X-Alpha parameter    XAlpha          ....  0.666667
 Correlation Functional Correlation     .... VWN-5
 Gradients option       PostSCFGGA      .... off
   Density functional embedding theory  .... OFF

Relativistic Settings:
 Scalar relativistic method             .... ZORA
 Speed of light used       Velit        ....       68.5179945
Orbital energies will be scaled


General Settings:
 Integral files         IntName         .... Kr_pc-4_68.5179945_
 Hartree-Fock type      HFTyp           .... RHF
 Total Charge           Charge          ....   34
 Multiplicity           Mult            ....    1
 Number of Electrons    NEL             ....    2
 Basis Dimension        Dim             ....  111
 Nuclear Repulsion      ENuc            ....      0.0000000000 Eh

Convergence Acceleration:
 DIIS                   CNVDIIS         .... on
   Start iteration      DIISMaxIt       ....    12
   Startup error        DIISStart       ....  0.200000
   # of expansion vecs  DIISMaxEq       ....     5
   Bias factor          DIISBfac        ....   1.050
   Max. coefficient     DIISMaxC        ....  10.000
 Newton-Raphson         CNVNR           .... off
 SOSCF                  CNVSOSCF        .... on
   Start iteration      SOSCFMaxIt      ....   150
   Startup grad/error   SOSCFStart      ....  0.003300
 Level Shifting         CNVShift        .... on
   Level shift para.    LevelShift      ....    0.2500
   Turn off err/grad.   ShiftErr        ....    0.0010
 Zerner damping         CNVZerner       .... off
 Static damping         CNVDamp         .... on
   Fraction old density DampFac         ....    0.7000
   Max. Damping (<1)    DampMax         ....    0.9800
   Min. Damping (>=0)   DampMin         ....    0.0000
   Turn off err/grad.   DampErr         ....    0.1000
 Fernandez-Rico         CNVRico         .... off

SCF Procedure:
 Maximum # iterations   MaxIter         ....   125
 SCF integral mode      SCFMode         .... Direct
   Integral package                     .... LIBINT
 Reset frequency        DirectResetFreq ....    20
 Integral Threshold     Thresh          ....  1.000e-12 Eh
 Primitive CutOff       TCut            ....  1.000e-14 Eh

Convergence Tolerance:
 Convergence Check Mode ConvCheckMode   .... Total+1el-Energy
 Convergence forced     ConvForced      .... 0
 Energy Change          TolE            ....  1.000e-09 Eh
 1-El. energy change                    ....  1.000e-06 Eh
 Orbital Gradient       TolG            ....  2.000e-06
 Orbital Rotation angle TolX            ....  2.000e-06
 DIIS Error             TolErr          ....  1.000e-08


Diagonalization of the overlap matrix:
Smallest eigenvalue                        ... 1.976e-05
Time for diagonalization                   ...    0.002 sec
Threshold for overlap eigenvalues          ... 1.000e-08
Number of eigenvalues below threshold      ... 0
Time for construction of square roots      ...    0.002 sec
Total time needed                          ...    0.003 sec

-------------------
DFT GRID GENERATION
-------------------

General Integration Accuracy     IntAcc      ...  5.010
Radial Grid Type                 RadialGrid  ... Gauss-Chebyshev
Angular Grid (max. acc.)         AngularGrid ... Lebedev-434
Angular grid pruning method      GridPruning ... 3 (G Style)
Weight generation scheme         WeightScheme... Becke
Basis function cutoff            BFCut       ...    1.0000e-12
Integration weight cutoff        WCut        ...    1.0000e-14
Grids for H and He will be reduced by one unit

# of grid points (after initial pruning)     ...  16106 (   0.0 sec)
# of grid points (after weights+screening)   ...  16106 (   0.0 sec)
Grid point division into batches done        ...    0.2 sec
Reduced shell lists constructed in    0.2 sec

Total number of grid points                  ...    16106
Total number of batches                      ...      252
Average number of points per batch           ...       63
Average number of grid points per atom       ...    16106
Average number of shells per batch           ...     2.00 ( 7.41%)
Average number of basis functions per batch  ...     4.93 ( 4.44%)
Average number of large shells per batch     ...     0.93 (46.67%)
Average number of large basis fcns per batch ...     2.80 (56.76%)
Maximum spatial batch extension              ...  17.34, 17.34, 17.34 au
Average spatial batch extension              ...   0.86,  0.87,  0.87 au

Time for grid setup =    0.237 sec

------------------------------
INITIAL GUESS: MODEL POTENTIAL
------------------------------
Loading ZORA relativistic densities                ... done
Calculating cut-offs                               ... done
Setting up the integral package                    ... done
Initializing the effective Hamiltonian             ... done
Starting the Coulomb interaction                   ... done (   0.0 sec)
Reading the grid                                   ... done
Mapping shells                                     ... done
Starting the XC term evaluation                    ... done (   0.0 sec)
  promolecular density results
     # of electrons  =     36.000000565
     EX              =    -91.042004939
     EC              =     -3.295965580
     EX+EC           =    -94.337970520
Transforming the Hamiltonian                       ... done (   0.0 sec)
Diagonalizing the Hamiltonian                      ... done (   0.0 sec)
Back transforming the eigenvectors                 ... done (   0.0 sec)
Now organizing SCF variables                       ... done
                      ------------------
                      INITIAL GUESS DONE (   0.3 sec)
                      ------------------
--------------
SCF ITERATIONS
--------------
ITER       Energy         Delta-E        Max-DP      RMS-DP      [F,P]     Damp
               ***  Starting incremental Fock matrix formation  ***
  0  -1428.9936437813   0.00000000000013.88294860  0.21867628  3.8339762 0.7000
                      *** Initiating the SOSCF procedure ***
                      *** Re-Reading the Fockian *** 
                      *** Removing any level shift *** 
ITER      Energy       Delta-E        Grad      Rot      Max-DP    RMS-DP
  1  -1429.01209415  -0.0184503694  0.001182  0.001182 32.400730  0.510357
               *** Restarting incremental Fock matrix formation ***
  2  -1429.05513679  -0.0430426348  0.001263  0.000002  0.016068  0.000255
  3  -1429.05513679  -0.0000000081  0.000004  0.000000  0.000048  0.000001
                 **** Energy Check signals convergence ****
              ***Rediagonalizing the Fockian in SOSCF/NRSCF***

               *****************************************************
               *                     SUCCESS                       *
               *           SCF CONVERGED AFTER   4 CYCLES          *
               *****************************************************

Setting up the final grid:

General Integration Accuracy     IntAcc      ...  5.340
Radial Grid Type                 RadialGrid  ... Gauss-Chebyshev
Angular Grid (max. acc.)         AngularGrid ... Lebedev-590
Angular grid pruning method      GridPruning ... 3 (G Style)
Weight generation scheme         WeightScheme... Becke
Basis function cutoff            BFCut       ...    1.0000e-12
Integration weight cutoff        WCut        ...    1.0000e-14
Grids for H and He will be reduced by one unit

# of grid points (after initial pruning)     ...  24180 (   0.0 sec)
# of grid points (after weights+screening)   ...  24180 (   0.0 sec)
Grid point division into batches done        ...    0.4 sec
Reduced shell lists constructed in    0.4 sec

Total number of grid points                  ...    24180
Total number of batches                      ...      378
Average number of points per batch           ...       63
Average number of grid points per atom       ...    24180
Average number of shells per batch           ...     1.36 ( 5.05%)
Average number of basis functions per batch  ...     4.09 ( 3.69%)
Average number of large shells per batch     ...     0.95 (70.00%)
Average number of large basis fcns per batch ...     2.86 (70.00%)
Maximum spatial batch extension              ...  17.58, 17.58, 17.58 au
Average spatial batch extension              ...   0.77,  0.77,  0.77 au

Final grid set up in    0.5 sec
Final integration                            ... done (   0.0 sec)
Change in XC energy                          ...    -0.000112088
Integrated number of electrons               ...     1.999998555
Previous integrated no of electrons          ...     1.999994154

----------------
TOTAL SCF ENERGY
----------------

Total Energy       :        -1429.05524888 Eh          -38886.57028 eV

Components:
Nuclear Repulsion  :            0.00000000 Eh               0.00000 eV
Electronic Energy  :        -1429.05524888 Eh          -38886.57028 eV
One Electron Energy:        -1455.60654630 Eh          -39609.06781 eV
Two Electron Energy:           26.55129742 Eh             722.49753 eV

Virial components:
Potential Energy   :        -2706.67121010 Eh          -73652.26804 eV
Kinetic Energy     :         1277.61596122 Eh           34765.69776 eV
Virial Ratio       :            2.11853271


DFT components:
N(Alpha)           :        0.999999277362 electrons
N(Beta)            :        0.999999277362 electrons
N(Total)           :        1.999998554723 electrons
E(X)               :      -20.269526417564 Eh       
E(C)               :       -0.280623404307 Eh       
E(XC)              :      -20.550149821871 Eh       
DFET-embed. en.    :        0.000000000000 Eh       

---------------
SCF CONVERGENCE
---------------

  Last Energy change         ...    3.6380e-12  Tolerance :   1.0000e-09
  Last MAX-Density change    ...    0.0000e+00  Tolerance :   1.0000e-08
  Last RMS-Density change    ...    0.0000e+00  Tolerance :   1.0000e-09
  Last Orbital Gradient      ...    7.9473e-10  Tolerance :   2.0000e-06
  Last Orbital Rotation      ...    0.0000e+00  Tolerance :   2.0000e-06

================================================================================
                                        WARNING
Number of found core electrons (2) does not match given number of chemical core electrons (18)
================================================================================
             **** THE GBW FILE WAS UPDATED (Kr_pc-4_68.5179945_.gbw) ****
             **** DENSITY FILE WAS UPDATED (Kr_pc-4_68.5179945_.scfp) ****
             **** ENERGY FILE WAS UPDATED (Kr_pc-4_68.5179945_.en.tmp) ****
             **** THE GBW FILE WAS UPDATED (Kr_pc-4_68.5179945_.gbw) ****
             **** DENSITY FILE WAS UPDATED (Kr_pc-4_68.5179945_.scfp) ****
----------------
ORBITAL ENERGIES
----------------

  NO   OCC          E(Eh)            E(eV) 
   0   2.0000    -694.364912    -18894.6298 
   1   0.0000    -161.487260     -4394.2917 
   2   0.0000    -152.687083     -4154.8268 
   3   0.0000    -152.687083     -4154.8268 
   4   0.0000    -152.687083     -4154.8268 
   5   0.0000     -66.852659     -1819.1533 
   6   0.0000     -62.092917     -1689.6342 
   7   0.0000     -62.092917     -1689.6342 
   8   0.0000     -62.092917     -1689.6342 
   9   0.0000     -62.092917     -1689.6342 
  10   0.0000     -62.092917     -1689.6342 
  11   0.0000     -61.287522     -1667.7183 
  12   0.0000     -61.287522     -1667.7183 
  13   0.0000     -61.287522     -1667.7183 
  14   0.0000     -35.480844      -965.4828 
  15   0.0000     -35.480844      -965.4828 
  16   0.0000     -35.480844      -965.4828 
  17   0.0000     -35.480844      -965.4828 
  18   0.0000     -35.480844      -965.4828 
  19   0.0000     -35.480844      -965.4828 
  20   0.0000     -35.480844      -965.4828 
  21   0.0000     -34.846581      -948.2237 
  22   0.0000     -31.881219      -867.5321 
  23   0.0000     -31.881219      -867.5321 
  24   0.0000     -31.881219      -867.5321 
  25   0.0000     -31.881219      -867.5321 
  26   0.0000     -31.881219      -867.5321 
  27   0.0000     -29.575550      -804.7916 
  28   0.0000     -29.575550      -804.7916 
  29   0.0000     -29.575550      -804.7916 
  30   0.0000     -22.432115      -610.4089 
  31   0.0000     -22.432115      -610.4089 
  32   0.0000     -22.432115      -610.4089 
  33   0.0000     -22.432115      -610.4089 
  34   0.0000     -22.432115      -610.4089 
  35   0.0000     -22.432115      -610.4089 
  36   0.0000     -22.432115      -610.4089 
  37   0.0000     -20.959966      -570.3497 
  38   0.0000     -20.838687      -567.0495 
  39   0.0000     -20.838687      -567.0495 
  40   0.0000     -20.838687      -567.0495 
  41   0.0000     -20.838687      -567.0495 
  42   0.0000     -20.838687      -567.0495 
  43   0.0000     -20.838687      -567.0495 
  44   0.0000     -20.838687      -567.0495 
  45   0.0000     -20.838687      -567.0495 
  46   0.0000     -20.838687      -567.0495 
  47   0.0000     -19.571328      -532.5629 
  48   0.0000     -19.571328      -532.5629 
  49   0.0000     -19.571328      -532.5629 
  50   0.0000     -19.571328      -532.5629 
  51   0.0000     -19.571328      -532.5629 
  52   0.0000     -17.422540      -474.0914 
  53   0.0000     -17.422540      -474.0914 
  54   0.0000     -17.422540      -474.0914 
  55   0.0000     -15.257151      -415.1682 
  56   0.0000     -15.257151      -415.1682 
  57   0.0000     -15.257151      -415.1682 
  58   0.0000     -15.257151      -415.1682 
  59   0.0000     -15.257151      -415.1682 
  60   0.0000     -15.257151      -415.1682 
  61   0.0000     -15.257151      -415.1682 
  62   0.0000     -13.567471      -369.1896 
  63   0.0000     -13.242642      -360.3506 
  64   0.0000     -13.242642      -360.3506 
  65   0.0000     -13.242642      -360.3506 
  66   0.0000     -13.242642      -360.3506 
  67   0.0000     -13.242642      -360.3506 
  68   0.0000     -12.961387      -352.6973 
  69   0.0000     -12.961387      -352.6973 
  70   0.0000     -12.961387      -352.6973 
  71   0.0000     -12.961387      -352.6973 
  72   0.0000     -12.961387      -352.6973 
  73   0.0000     -12.961387      -352.6973 
  74   0.0000     -12.961387      -352.6973 
  75   0.0000     -12.961387      -352.6973 
  76   0.0000     -12.961387      -352.6973 
  77   0.0000     -12.961387      -352.6973 
  78   0.0000     -12.961387      -352.6973 
  79   0.0000     -12.692093      -345.3694 
  80   0.0000     -12.692093      -345.3694 
  81   0.0000     -12.692093      -345.3694 
  82   0.0000     -12.692093      -345.3694 
  83   0.0000     -12.692093      -345.3694 
  84   0.0000     -12.692093      -345.3694 
  85   0.0000     -12.692093      -345.3694 
  86   0.0000     -12.692093      -345.3694 
  87   0.0000     -12.692093      -345.3694 
  88   0.0000     -11.812882      -321.4449 
  89   0.0000     -11.812882      -321.4449 
  90   0.0000     -11.812882      -321.4449 
  91   0.0000     -10.095882      -274.7229 
  92   0.0000     -10.095882      -274.7229 
  93   0.0000     -10.095882      -274.7229 
  94   0.0000     -10.095882      -274.7229 
  95   0.0000     -10.095882      -274.7229 
  96   0.0000     -10.095882      -274.7229 
  97   0.0000     -10.095882      -274.7229 
  98   0.0000      -9.159243      -249.2357 
  99   0.0000      -9.159243      -249.2357 
 100   0.0000      -9.159243      -249.2357 
 101   0.0000      -9.159243      -249.2357 
 102   0.0000      -9.159243      -249.2357 
 103   0.0000      -8.859485      -241.0788 
 104   0.0000      -8.491745      -231.0721 
 105   0.0000      -8.491745      -231.0721 
 106   0.0000      -8.491745      -231.0721 
 107   0.0000      -5.829238      -158.6216 
 108   0.0000      -5.829238      -158.6216 
 109   0.0000      -5.829238      -158.6216 
 110   0.0000      75.508249      2054.6839 

                    ********************************
                    * MULLIKEN POPULATION ANALYSIS *
                    ********************************

-----------------------
MULLIKEN ATOMIC CHARGES
-----------------------
   0 Kr:   34.000000
Sum of atomic charges:   34.0000000

--------------------------------
MULLIKEN REDUCED ORBITAL CHARGES
--------------------------------
  0 Krs       :     2.000000  s :     2.000000
      pz      :     0.000000  p :     0.000000
      px      :     0.000000
      py      :     0.000000
      dz2     :     0.000000  d :     0.000000
      dxz     :     0.000000
      dyz     :     0.000000
      dx2y2   :     0.000000
      dxy     :     0.000000
      f0      :     0.000000  f :     0.000000
      f+1     :     0.000000
      f-1     :     0.000000
      f+2     :     0.000000
      f-2     :     0.000000
      f+3     :     0.000000
      f-3     :     0.000000
      g0      :     0.000000  g :     0.000000
      g+1     :     0.000000
      g-1     :     0.000000
      g+2     :     0.000000
      g-2     :     0.000000
      g+3     :     0.000000
      g-3     :     0.000000
      g+4     :     0.000000
      g-4     :     0.000000
      h0      :     0.000000  h :     0.000000
      h+1     :     0.000000
      h-1     :     0.000000
      h+2     :     0.000000
      h-2     :     0.000000
      h+3     :     0.000000
      h-3     :     0.000000
      h+4     :     0.000000
      h-4     :     0.000000
      h+5     :     0.000000
      h-5     :     0.000000


                     *******************************
                     * LOEWDIN POPULATION ANALYSIS *
                     *******************************

----------------------
LOEWDIN ATOMIC CHARGES
----------------------
   0 Kr:   34.000000

-------------------------------
LOEWDIN REDUCED ORBITAL CHARGES
-------------------------------
  0 Krs       :     2.000000  s :     2.000000
      pz      :     0.000000  p :     0.000000
      px      :     0.000000
      py      :     0.000000
      dz2     :     0.000000  d :     0.000000
      dxz     :     0.000000
      dyz     :     0.000000
      dx2y2   :     0.000000
      dxy     :     0.000000
      f0      :     0.000000  f :     0.000000
      f+1     :     0.000000
      f-1     :     0.000000
      f+2     :     0.000000
      f-2     :     0.000000
      f+3     :     0.000000
      f-3     :     0.000000
      g0      :     0.000000  g :     0.000000
      g+1     :     0.000000
      g-1     :     0.000000
      g+2     :     0.000000
      g-2     :     0.000000
      g+3     :     0.000000
      g-3     :     0.000000
      g+4     :     0.000000
      g-4     :     0.000000
      h0      :     0.000000  h :     0.000000
      h+1     :     0.000000
      h-1     :     0.000000
      h+2     :     0.000000
      h-2     :     0.000000
      h+3     :     0.000000
      h-3     :     0.000000
      h+4     :     0.000000
      h-4     :     0.000000
      h+5     :     0.000000
      h-5     :     0.000000


                      *****************************
                      * MAYER POPULATION ANALYSIS *
                      *****************************

  NA   - Mulliken gross atomic population
  ZA   - Total nuclear charge
  QA   - Mulliken gross atomic charge
  VA   - Mayer's total valence
  BVA  - Mayer's bonded valence
  FA   - Mayer's free valence

  ATOM       NA         ZA         QA         VA         BVA        FA
  0 Kr     2.0000    36.0000    34.0000     0.0000     0.0000     0.0000

  Mayer bond orders larger than 0.100000


--------------------------
ATOM BASIS FOR ELEMENT Kr
--------------------------
 NewGTO Kr
 S 84
    1   81180000.000000000000         0.000000848135
    2   12174000.000000000000         0.000006578974
    3    2775000.000000000000         0.000034541447
    4     787190.000000000000         0.000145747983
    5     257190.000000000000         0.000530845252
    6      92980.000000000000         0.001734047648
    7      36316.000000000000         0.005193080155
    8      15086.000000000000         0.014435292419
    9       6592.600000000000         0.037341747199
   10       3007.200000000000         0.089146280671
   11       1422.900000000000         0.191795099257
   12        693.380000000000         0.355556648833
   13        347.150000000000         0.509145471880
   14        177.900000000000         0.481906189134
   15         92.353000000000         0.226060589515
   16         45.341000000000         0.027797306183
   17         23.694000000000        -0.001905731501
   18         12.583000000000         0.000868225407
   19          6.605000000000        -0.000403518152
   20          3.354100000000         0.000186795291
   21   81180000.000000000000        -0.000000744662
   22   12174000.000000000000        -0.000005775057
   23    2775000.000000000000        -0.000030336768
   24     787190.000000000000        -0.000127939183
   25     257190.000000000000        -0.000466545447
   26      92980.000000000000        -0.001524052172
   27      36316.000000000000        -0.004581066141
   28      15086.000000000000        -0.012789362277
   29       6592.600000000000        -0.033558407801
   30       3007.200000000000        -0.082100173133
   31       1422.900000000000        -0.186727524120
   32        693.380000000000        -0.383367006495
   33        347.150000000000        -0.661742177328
   34        177.900000000000        -0.859019507886
   35         92.353000000000        -0.415988384943
   36         45.341000000000         1.270330339495
   37         23.694000000000         2.531143579132
   38         12.583000000000         1.555995203836
   39          6.605000000000         0.245996782169
   40          3.354100000000        -0.000166468251
   41   81180000.000000000000         0.000001216373
   42   12174000.000000000000         0.000009440110
   43    2775000.000000000000         0.000049516945
   44     787190.000000000000         0.000209226676
   45     257190.000000000000         0.000761184859
   46      92980.000000000000         0.002494092821
   47      36316.000000000000         0.007473287882
   48      15086.000000000000         0.020964447309
   49       6592.600000000000         0.054837252883
   50       3007.200000000000         0.135369056168
   51       1422.900000000000         0.307980270191
   52        693.380000000000         0.646343414123
   53        347.150000000000         1.132363622427
   54        177.900000000000         1.570442882001
   55         92.353000000000         0.775067373536
   56         45.341000000000        -3.001267336371
   57         23.694000000000        -8.172437735497
   58         12.583000000000        -6.336508297926
   59          6.605000000000         5.039749265542
   60          3.354100000000        13.221442010446
   61   81180000.000000000000        -0.000000719976
   62   12174000.000000000000        -0.000005578353
   63    2775000.000000000000        -0.000029270254
   64     787190.000000000000        -0.000123636896
   65     257190.000000000000        -0.000450014421
   66      92980.000000000000        -0.001473697719
   67      36316.000000000000        -0.004419073712
   68      15086.000000000000        -0.012387981524
   69       6592.600000000000        -0.032439905311
   70       3007.200000000000        -0.080037359306
   71       1422.900000000000        -0.182511051534
   72        693.380000000000        -0.383226380498
   73        347.150000000000        -0.675372839192
   74        177.900000000000        -0.940827495609
   75         92.353000000000        -0.474686777555
   76         45.341000000000         1.887479189302
   77         23.694000000000         5.350652732755
   78         12.583000000000         4.481413119131
   79          6.605000000000        -4.133424600410
   80          3.354100000000       -14.633663529032
   81          1.662200000000         0.974618346599
   82          0.654060000000        -0.517805047959
   83          0.303170000000         0.272760424235
   84          0.129700000000        -0.071628568307
 S 84
    1   81180000.000000000000         0.000000403140
    2   12174000.000000000000         0.000003127156
    3    2775000.000000000000         0.000016418439
    4     787190.000000000000         0.000069277768
    5     257190.000000000000         0.000252324414
    6      92980.000000000000         0.000824237487
    7      36316.000000000000         0.002468404684
    8      15086.000000000000         0.006861466097
    9       6592.600000000000         0.017749493739
   10       3007.200000000000         0.042373522113
   11       1422.900000000000         0.091165148095
   12        693.380000000000         0.169005228353
   13        347.150000000000         0.242009949814
   14        177.900000000000         0.229062417499
   15         92.353000000000         0.107452417717
   16         45.341000000000         0.013212775220
   17         23.694000000000        -0.000905843242
   18         12.583000000000         0.000412689887
   19          6.605000000000        -0.000191802566
   20          3.354100000000         0.000088788610
   21   81180000.000000000000        -0.000000790581
   22   12174000.000000000000        -0.000006131165
   23    2775000.000000000000        -0.000032207429
   24     787190.000000000000        -0.000135828316
   25     257190.000000000000        -0.000495314107
   26      92980.000000000000        -0.001618030025
   27      36316.000000000000        -0.004863549096
   28      15086.000000000000        -0.013577994603
   29       6592.600000000000        -0.035627724836
   30       3007.200000000000        -0.087162728181
   31       1422.900000000000        -0.198241730897
   32        693.380000000000        -0.407006622589
   33        347.150000000000        -0.702547282515
   34        177.900000000000        -0.911989354116
   35         92.353000000000        -0.441639537893
   36         45.341000000000         1.348662906016
   37         23.694000000000         2.687221857847
   38         12.583000000000         1.651942764893
   39          6.605000000000         0.261165717920
   40          3.354100000000        -0.000176733207
   41   81180000.000000000000         0.000001508833
   42   12174000.000000000000         0.000011709853
   43    2775000.000000000000         0.000061422605
   44     787190.000000000000         0.000259532318
   45     257190.000000000000         0.000944201165
   46      92980.000000000000         0.003093762729
   47      36316.000000000000         0.009270135945
   48      15086.000000000000         0.026005056896
   49       6592.600000000000         0.068022107150
   50       3007.200000000000         0.167916661749
   51       1422.900000000000         0.382029839897
   52        693.380000000000         0.801747692677
   53        347.150000000000         1.404624695966
   54        177.900000000000         1.948034016612
   55         92.353000000000         0.961421536638
   56         45.341000000000        -3.722880297786
   57         23.694000000000       -10.137386650518
   58         12.583000000000        -7.860033530912
   59          6.605000000000         6.251486836608
   60          3.354100000000        16.400353734741
   61   81180000.000000000000        -0.000000877697
   62   12174000.000000000000        -0.000006800371
   63    2775000.000000000000        -0.000035682327
   64     787190.000000000000        -0.000150721349
   65     257190.000000000000        -0.000548596597
   66      92980.000000000000        -0.001796532546
   67      36316.000000000000        -0.005387135804
   68      15086.000000000000        -0.015101748273
   69       6592.600000000000        -0.039546336347
   70       3007.200000000000        -0.097570701921
   71       1422.900000000000        -0.222492740403
   72        693.380000000000        -0.467177668833
   73        347.150000000000        -0.823323040017
   74        177.900000000000        -1.146929383098
   75         92.353000000000        -0.578673790346
   76         45.341000000000         2.300958839215
   77         23.694000000000         6.522790699248
   78         12.583000000000         5.463131560381
   79          6.605000000000        -5.038911117246
   80          3.354100000000       -17.839379442207
   81          1.662200000000         0.867660133093
   82          0.654060000000        -0.421554732203
   83          0.303170000000         0.214628138856
   84          0.129700000000        -0.055331359867
 S 84
    1   81180000.000000000000         0.000000390818
    2   12174000.000000000000         0.000003031574
    3    2775000.000000000000         0.000015916606
    4     787190.000000000000         0.000067160280
    5     257190.000000000000         0.000244612071
    6      92980.000000000000         0.000799044515
    7      36316.000000000000         0.002392957437
    8      15086.000000000000         0.006651744112
    9       6592.600000000000         0.017206977169
   10       3007.200000000000         0.041078367544
   11       1422.900000000000         0.088378668422
   12        693.380000000000         0.163839552178
   13        347.150000000000         0.234612870777
   14        177.900000000000         0.222061082190
   15         92.353000000000         0.104168114625
   16         45.341000000000         0.012808924293
   17         23.694000000000        -0.000878155975
   18         12.583000000000         0.000400075944
   19          6.605000000000        -0.000185940085
   20          3.354100000000         0.000086074770
   21   81180000.000000000000        -0.000000877443
   22   12174000.000000000000        -0.000006804803
   23    2775000.000000000000        -0.000035746095
   24     787190.000000000000        -0.000150751923
   25     257190.000000000000        -0.000549734815
   26      92980.000000000000        -0.001795804770
   27      36316.000000000000        -0.005397912604
   28      15086.000000000000        -0.015069823859
   29       6592.600000000000        -0.039542182292
   30       3007.200000000000        -0.096739393342
   31       1422.900000000000        -0.220022768703
   32        693.380000000000        -0.451724889494
   33        347.150000000000        -0.779736927963
   34        177.900000000000        -1.012190631167
   35         92.353000000000        -0.490162961432
   36         45.341000000000         1.496841988243
   37         23.694000000000         2.982469889700
   38         12.583000000000         1.833443539994
   39          6.605000000000         0.289860283640
   40          3.354100000000        -0.000196151080
   41   81180000.000000000000         0.000001322237
   42   12174000.000000000000         0.000010261707
   43    2775000.000000000000         0.000053826536
   44     787190.000000000000         0.000227436231
   45     257190.000000000000         0.000827432806
   46      92980.000000000000         0.002711160365
   47      36316.000000000000         0.008123708039
   48      15086.000000000000         0.022789039020
   49       6592.600000000000         0.059609885118
   50       3007.200000000000         0.147150585824
   51       1422.900000000000         0.334784613735
   52        693.380000000000         0.702596403669
   53        347.150000000000         1.230916245727
   54        177.900000000000         1.707122710547
   55         92.353000000000         0.842523552262
   56         45.341000000000        -3.262475629686
   57         23.694000000000        -8.883706767496
   58         12.583000000000        -6.887991499046
   59          6.605000000000         5.478372072792
   60          3.354100000000        14.372139337824
   61   81180000.000000000000        -0.000000689643
   62   12174000.000000000000        -0.000005343329
   63    2775000.000000000000        -0.000028037057
   64     787190.000000000000        -0.000118427899
   65     257190.000000000000        -0.000431054678
   66      92980.000000000000        -0.001411608753
   67      36316.000000000000        -0.004232891896
   68      15086.000000000000        -0.011866058368
   69       6592.600000000000        -0.031073166289
   70       3007.200000000000        -0.076665272330
   71       1422.900000000000        -0.174821603192
   72        693.380000000000        -0.367080511899
   73        347.150000000000        -0.646918427721
   74        177.900000000000        -0.901189104590
   75         92.353000000000        -0.454687553268
   76         45.341000000000         1.807957025574
   77         23.694000000000         5.125222176978
   78         12.583000000000         4.292604855808
   79          6.605000000000        -3.959277584808
   80          3.354100000000       -14.017126619019
   81          1.662200000000        -0.420807497427
   82          0.654060000000         0.296280188266
   83          0.303170000000        -0.166914101200
   84          0.129700000000         0.044878729655
 S 84
    1   81180000.000000000000         0.000000281203
    2   12174000.000000000000         0.000002181291
    3    2775000.000000000000         0.000011452386
    4     787190.000000000000         0.000048323456
    5     257190.000000000000         0.000176004339
    6      92980.000000000000         0.000574931978
    7      36316.000000000000         0.001721791121
    8      15086.000000000000         0.004786091794
    9       6592.600000000000         0.012380838895
   10       3007.200000000000         0.029556885306
   11       1422.900000000000         0.063590603088
   12        693.380000000000         0.117886545688
   13        347.150000000000         0.168809671060
   14        177.900000000000         0.159778353659
   15         92.353000000000         0.074951493951
   16         45.341000000000         0.009216332801
   17         23.694000000000        -0.000631854599
   18         12.583000000000         0.000287864380
   19          6.605000000000        -0.000133788417
   20          3.354100000000         0.000061932892
   21   81180000.000000000000        -0.000000580012
   22   12174000.000000000000        -0.000004498150
   23    2775000.000000000000        -0.000023629088
   24     787190.000000000000        -0.000099650898
   25     257190.000000000000        -0.000363388851
   26      92980.000000000000        -0.001187073138
   27      36316.000000000000        -0.003568159056
   28      15086.000000000000        -0.009961541141
   29       6592.600000000000        -0.026138399453
   30       3007.200000000000        -0.063947226974
   31       1422.900000000000        -0.145440708730
   32        693.380000000000        -0.298601769563
   33        347.150000000000        -0.515426162912
   34        177.900000000000        -0.669084039049
   35         92.353000000000        -0.324010323677
   36         45.341000000000         0.989451050498
   37         23.694000000000         1.971489301223
   38         12.583000000000         1.211953333034
   39          6.605000000000         0.191605102207
   40          3.354100000000        -0.000129660908
   41   81180000.000000000000         0.000000666139
   42   12174000.000000000000         0.000005169818
   43    2775000.000000000000         0.000027117651
   44     787190.000000000000         0.000114581707
   45     257190.000000000000         0.000416858223
   46      92980.000000000000         0.001365874648
   47      36316.000000000000         0.004092700306
   48      15086.000000000000         0.011481051082
   49       6592.600000000000         0.030031285454
   50       3007.200000000000         0.074134033959
   51       1422.900000000000         0.168663507418
   52        693.380000000000         0.353966009429
   53        347.150000000000         0.620131997782
   54        177.900000000000         0.860043419383
   55         92.353000000000         0.424460896877
   56         45.341000000000        -1.643625662570
   57         23.694000000000        -4.475585438536
   58         12.583000000000        -3.470149934111
   59          6.605000000000         2.759987797614
   60          3.354100000000         7.240641685330
   61   81180000.000000000000        -0.000000278485
   62   12174000.000000000000        -0.000002157694
   63    2775000.000000000000        -0.000011321665
   64     787190.000000000000        -0.000047822460
   65     257190.000000000000        -0.000174064515
   66      92980.000000000000        -0.000570022798
   67      36316.000000000000        -0.001709287278
   68      15086.000000000000        -0.004791642005
   69       6592.600000000000        -0.012547678781
   70       3007.200000000000        -0.030958261606
   71       1422.900000000000        -0.070594843812
   72        693.380000000000        -0.148231059153
   73        347.150000000000        -0.261232619597
   74        177.900000000000        -0.363909853943
   75         92.353000000000        -0.183607724790
   76         45.341000000000         0.730072493953
   77         23.694000000000         2.069619843768
   78         12.583000000000         1.733400013553
   79          6.605000000000        -1.598798876137
   80          3.354100000000        -5.660266501937
   81          1.662200000000        -3.353592117083
   82          0.654060000000         1.257809050250
   83          0.303170000000        -0.637361492069
   84          0.129700000000         0.162397965162
 S 84
    1   81180000.000000000000        -0.000000184751
    2   12174000.000000000000        -0.000001433114
    3    2775000.000000000000        -0.000007524249
    4     787190.000000000000        -0.000031748643
    5     257190.000000000000        -0.000115635332
    6      92980.000000000000        -0.000377731879
    7      36316.000000000000        -0.001131221468
    8      15086.000000000000        -0.003144475378
    9       6592.600000000000        -0.008134244963
   10       3007.200000000000        -0.019418954359
   11       1422.900000000000        -0.041779199880
   12        693.380000000000        -0.077451782438
   13        347.150000000000        -0.110908414867
   14        177.900000000000        -0.104974814672
   15         92.353000000000        -0.049243336201
   16         45.341000000000        -0.006055155818
   17         23.694000000000         0.000415130197
   18         12.583000000000        -0.000189127684
   19          6.605000000000         0.000087899355
   20          3.354100000000        -0.000040690079
   21   81180000.000000000000         0.000000360289
   22   12174000.000000000000         0.000002794138
   23    2775000.000000000000         0.000014677796
   24     787190.000000000000         0.000061900636
   25     257190.000000000000         0.000225728029
   26      92980.000000000000         0.000737380025
   27      36316.000000000000         0.002216450807
   28      15086.000000000000         0.006187859217
   29       6592.600000000000         0.016236517390
   30       3007.200000000000         0.039722411644
   31       1422.900000000000         0.090344116162
   32        693.380000000000         0.185483921189
   33        347.150000000000         0.320169789750
   34        177.900000000000         0.415618203968
   35         92.353000000000         0.201267076981
   36         45.341000000000        -0.614622146878
   37         23.694000000000        -1.224639648677
   38         12.583000000000        -0.752834977628
   39          6.605000000000        -0.119020278176
   40          3.354100000000         0.000080542100
   41   81180000.000000000000        -0.000000343829
   42   12174000.000000000000        -0.000002668415
   43    2775000.000000000000        -0.000013996845
   44     787190.000000000000        -0.000059141640
   45     257190.000000000000        -0.000215162434
   46      92980.000000000000        -0.000704999680
   47      36316.000000000000        -0.002112457691
   48      15086.000000000000        -0.005925973770
   49       6592.600000000000        -0.015500724507
   50       3007.200000000000        -0.038264470523
   51       1422.900000000000        -0.087056099111
   52        693.380000000000        -0.182700457678
   53        347.150000000000        -0.320082710762
   54        177.900000000000        -0.443913602320
   55         92.353000000000        -0.219086573457
   56         45.341000000000         0.848361573721
   57         23.694000000000         2.310084827967
   58         12.583000000000         1.791126730492
   59          6.605000000000        -1.424574734234
   60          3.354100000000        -3.737275655159
   61   81180000.000000000000         0.000000113744
   62   12174000.000000000000         0.000000881288
   63    2775000.000000000000         0.000004624220
   64     787190.000000000000         0.000019532601
   65     257190.000000000000         0.000071094893
   66      92980.000000000000         0.000232820055
   67      36316.000000000000         0.000698141124
   68      15086.000000000000         0.001957097779
   69       6592.600000000000         0.005124972662
   70       3007.200000000000         0.012644589262
   71       1422.900000000000         0.028833750918
   72        693.380000000000         0.060543478917
   73        347.150000000000         0.106697824919
   74        177.900000000000         0.148635304205
   75         92.353000000000         0.074992720678
   76         45.341000000000        -0.298190736125
   77         23.694000000000        -0.845315321184
   78         12.583000000000        -0.707989727490
   79          6.605000000000         0.653013252438
   80          3.354100000000         2.311878681719
   81          1.662200000000         4.582936153704
   82          0.654060000000        -4.377141655700
   83          0.303170000000         1.508254063936
   84          0.129700000000        -0.346036009310
 S 84
    1   81180000.000000000000         0.000000118330
    2   12174000.000000000000         0.000000917885
    3    2775000.000000000000         0.000004819154
    4     787190.000000000000         0.000020334469
    5     257190.000000000000         0.000074062476
    6      92980.000000000000         0.000241930886
    7      36316.000000000000         0.000724528237
    8      15086.000000000000         0.002013983349
    9       6592.600000000000         0.005209846457
   10       3007.200000000000         0.012437512151
   11       1422.900000000000         0.026758871592
   12        693.380000000000         0.049606557971
   13        347.150000000000         0.071034965735
   14        177.900000000000         0.067234595068
   15         92.353000000000         0.031539524786
   16         45.341000000000         0.003878224989
   17         23.694000000000        -0.000265883877
   18         12.583000000000         0.000121133086
   19          6.605000000000        -0.000056298052
   20          3.354100000000         0.000026061308
   21   81180000.000000000000        -0.000000229232
   22   12174000.000000000000        -0.000001777757
   23    2775000.000000000000        -0.000009338678
   24     787190.000000000000        -0.000039383984
   25     257190.000000000000        -0.000143618381
   26      92980.000000000000        -0.000469154520
   27      36316.000000000000        -0.001410206244
   28      15086.000000000000        -0.003936995882
   29       6592.600000000000        -0.010330406667
   30       3007.200000000000        -0.025273194752
   31       1422.900000000000        -0.057481012555
   32        693.380000000000        -0.118013259253
   33        347.150000000000        -0.203706500060
   34        177.900000000000        -0.264435097883
   35         92.353000000000        -0.128055216768
   36         45.341000000000         0.391050406404
   37         23.694000000000         0.779171129362
   38         12.583000000000         0.478987660064
   39          6.605000000000         0.075726083720
   40          3.354100000000        -0.000051244527
   41   81180000.000000000000         0.000000222928
   42   12174000.000000000000         0.000001730115
   43    2775000.000000000000         0.000009075107
   44     787190.000000000000         0.000038345549
   45     257190.000000000000         0.000139504447
   46      92980.000000000000         0.000457099265
   47      36316.000000000000         0.001369650067
   48      15086.000000000000         0.003842212038
   49       6592.600000000000         0.010050174470
   50       3007.200000000000         0.024809460008
   51       1422.900000000000         0.056444392928
   52        693.380000000000         0.118457138863
   53        347.150000000000         0.207531401935
   54        177.900000000000         0.287819395207
   55         92.353000000000         0.142048733674
   56         45.341000000000        -0.550050536387
   57         23.694000000000        -1.497785187450
   58         12.583000000000        -1.161309339509
   59          6.605000000000         0.923648737708
   60          3.354100000000         2.423130116240
   61   81180000.000000000000        -0.000000078696
   62   12174000.000000000000        -0.000000609730
   63    2775000.000000000000        -0.000003199324
   64     787190.000000000000        -0.000013513874
   65     257190.000000000000        -0.000049187890
   66      92980.000000000000        -0.000161079462
   67      36316.000000000000        -0.000483017656
   68      15086.000000000000        -0.001354042541
   69       6592.600000000000        -0.003545776343
   70       3007.200000000000        -0.008748317002
   71       1422.900000000000        -0.019948990683
   72        693.380000000000        -0.041887762028
   73        347.150000000000        -0.073820222741
   74        177.900000000000        -0.102835191551
   75         92.353000000000        -0.051884650400
   76         45.341000000000         0.206306984953
   77         23.694000000000         0.584841962275
   78         12.583000000000         0.489831535190
   79          6.605000000000        -0.451795374314
   80          3.354100000000        -1.599502139467
   81          1.662200000000        -3.524975785473
   82          0.654060000000         6.123153038115
   83          0.303170000000        -4.906477941095
   84          0.129700000000         0.825184488273
 S 84
    1   81180000.000000000000         0.000000069605
    2   12174000.000000000000         0.000000539928
    3    2775000.000000000000         0.000002834773
    4     787190.000000000000         0.000011961352
    5     257190.000000000000         0.000043565795
    6      92980.000000000000         0.000142311085
    7      36316.000000000000         0.000426189485
    8      15086.000000000000         0.001184686093
    9       6592.600000000000         0.003064589709
   10       3007.200000000000         0.007316121897
   11       1422.900000000000         0.015740379910
   12        693.380000000000         0.029180082045
   13        347.150000000000         0.041784921450
   14        177.900000000000         0.039549428152
   15         92.353000000000         0.018552505124
   16         45.341000000000         0.002281289571
   17         23.694000000000        -0.000156400961
   18         12.583000000000         0.000071254155
   19          6.605000000000        -0.000033116222
   20          3.354100000000         0.000015330052
   21   81180000.000000000000        -0.000000137744
   22   12174000.000000000000        -0.000001068240
   23    2775000.000000000000        -0.000005611539
   24     787190.000000000000        -0.000023665530
   25     257190.000000000000        -0.000086299169
   26      92980.000000000000        -0.000281911306
   27      36316.000000000000        -0.000847381974
   28      15086.000000000000        -0.002365710234
   29       6592.600000000000        -0.006207461096
   30       3007.200000000000        -0.015186466347
   31       1422.900000000000        -0.034539893802
   32        693.380000000000        -0.070913250491
   33        347.150000000000        -0.122405653032
   34        177.900000000000        -0.158896995586
   35         92.353000000000        -0.076947384733
   36         45.341000000000         0.234979150642
   37         23.694000000000         0.468197877266
   38         12.583000000000         0.287819963070
   39          6.605000000000         0.045503215296
   40          3.354100000000        -0.000030792438
   41   81180000.000000000000         0.000000151755
   42   12174000.000000000000         0.000001177751
   43    2775000.000000000000         0.000006177748
   44     787190.000000000000         0.000026103179
   45     257190.000000000000         0.000094965639
   46      92980.000000000000         0.000311163727
   47      36316.000000000000         0.000932369513
   48      15086.000000000000         0.002615530385
   49       6592.600000000000         0.006841511204
   50       3007.200000000000         0.016888681795
   51       1422.900000000000         0.038423705754
   52        693.380000000000         0.080637987443
   53        347.150000000000         0.141274006311
   54        177.900000000000         0.195928898835
   55         92.353000000000         0.096697625084
   56         45.341000000000        -0.374438963087
   57         23.694000000000        -1.019595646976
   58         12.583000000000        -0.790544570261
   59          6.605000000000         0.628760546033
   60          3.354100000000         1.649510850605
   61   81180000.000000000000        -0.000000064745
   62   12174000.000000000000        -0.000000501642
   63    2775000.000000000000        -0.000002632175
   64     787190.000000000000        -0.000011118249
   65     257190.000000000000        -0.000040468278
   66      92980.000000000000        -0.000132524661
   67      36316.000000000000        -0.000397392381
   68      15086.000000000000        -0.001114009360
   69       6592.600000000000        -0.002917211175
   70       3007.200000000000        -0.007197489536
   71       1422.900000000000        -0.016412602752
   72        693.380000000000        -0.034462254720
   73        347.150000000000        -0.060733999535
   74        177.900000000000        -0.084605440676
   75         92.353000000000        -0.042686979479
   76         45.341000000000         0.169734631825
   77         23.694000000000         0.481166137761
   78         12.583000000000         0.402998353648
   79          6.605000000000        -0.371704920883
   80          3.354100000000        -1.315955961494
   81          1.662200000000        -1.828600193397
   82          0.654060000000         4.347636331067
   83          0.303170000000        -5.804944901691
   84          0.129700000000         3.294212630057
 S 84
    1   81180000.000000000000         0.000003804126
    2   12174000.000000000000         0.000029508583
    3    2775000.000000000000         0.000154928280
    4     787190.000000000000         0.000653721431
    5     257190.000000000000         0.002380992939
    6      92980.000000000000         0.007777700171
    7      36316.000000000000         0.023292451306
    8      15086.000000000000         0.064746419412
    9       6592.600000000000         0.167488427361
   10       3007.200000000000         0.399846591949
   11       1422.900000000000         0.860255932304
   12        693.380000000000         1.594773368104
   13        347.150000000000         2.283663212911
   14        177.900000000000         2.161487231020
   15         92.353000000000         1.013946466533
   16         45.341000000000         0.124678876772
   17         23.694000000000        -0.008547751406
   18         12.583000000000         0.003894239530
   19          6.605000000000        -0.001809894443
   20          3.354100000000         0.000837830360
   21   81180000.000000000000        -0.000008344985
   22   12174000.000000000000        -0.000064717596
   23    2775000.000000000000        -0.000339965933
   24     787190.000000000000        -0.001433737550
   25     257190.000000000000        -0.005228294478
   26      92980.000000000000        -0.017079136895
   27      36316.000000000000        -0.051337255504
   28      15086.000000000000        -0.143322697976
   29       6592.600000000000        -0.376068911159
   30       3007.200000000000        -0.920047306750
   31       1422.900000000000        -2.092543159254
   32        693.380000000000        -4.296163678639
   33        347.150000000000        -7.415746944035
   34        177.900000000000        -9.626515444716
   35         92.353000000000        -4.661731864895
   36         45.341000000000        14.235828780111
   37         23.694000000000        28.365005140892
   38         12.583000000000        17.437103260312
   39          6.605000000000         2.756738119633
   40          3.354100000000        -0.001865509658
   41   81180000.000000000000         0.000013548373
   42   12174000.000000000000         0.000105147157
   43    2775000.000000000000         0.000551536598
   44     787190.000000000000         0.002330437988
   45     257190.000000000000         0.008478336271
   46      92980.000000000000         0.027780055482
   47      36316.000000000000         0.083240026296
   48      15086.000000000000         0.233509155927
   49       6592.600000000000         0.610796003585
   50       3007.200000000000         1.507786662722
   51       1422.900000000000         3.430389166629
   52        693.380000000000         7.199193131271
   53        347.150000000000        12.612651780077
   54        177.900000000000        17.492127810260
   55         92.353000000000         8.632964442609
   56         45.341000000000       -33.429138010853
   57         23.694000000000       -91.027395538626
   58         12.583000000000       -70.578188031195
   59          6.605000000000        56.134444171704
   60          3.354100000000       147.264925157941
   61   81180000.000000000000        -0.000008097664
   62   12174000.000000000000        -0.000062740436
   63    2775000.000000000000        -0.000329206246
   64     787190.000000000000        -0.001390559808
   65     257190.000000000000        -0.005061369095
   66      92980.000000000000        -0.016574864597
   67      36316.000000000000        -0.049701880832
   68      15086.000000000000        -0.139329194648
   69       6592.600000000000        -0.364855717032
   70       3007.200000000000        -0.900190300765
   71       1422.900000000000        -2.052724874966
   72        693.380000000000        -4.310195560103
   73        347.150000000000        -7.596003722692
   74        177.900000000000       -10.581605809917
   75         92.353000000000        -5.338862210883
   76         45.341000000000        21.228717112156
   77         23.694000000000        60.179467870625
   78         12.583000000000        50.403020021606
   79          6.605000000000       -46.489149148716
   80          3.354100000000      -164.586664124889
   81          1.662200000000        13.053062547343
   82          0.654060000000        -7.407785126878
   83          0.303170000000         4.022049765602
   84          0.129700000000        -1.077523745175
 P 49
    1      97285.000000000000         0.000007954185
    2      23066.000000000000         0.000070972345
    3       7508.300000000000         0.000415190321
    4       2884.200000000000         0.001894146848
    5       1235.000000000000         0.007169927434
    6        565.950000000000         0.024048091277
    7        273.290000000000         0.066649907176
    8        137.780000000000         0.156220911810
    9         71.579000000000         0.282879072552
   10         38.347000000000         0.362377434029
   11         20.853000000000         0.289699015860
   12         11.399000000000         0.114098158879
   13          5.944400000000         0.013559438827
   14          3.115000000000        -0.000419451880
   15          1.606000000000         0.000194161829
   16      97285.000000000000        -0.000003274768
   17      23066.000000000000        -0.000029178074
   18       7508.300000000000        -0.000171193355
   19       2884.200000000000        -0.000781585250
   20       1235.000000000000        -0.002981240033
   21        565.950000000000        -0.010087562633
   22        273.290000000000        -0.028633431626
   23        137.780000000000        -0.069316259700
   24         71.579000000000        -0.133526146243
   25         38.347000000000        -0.175229127901
   26         20.853000000000        -0.119083312542
   27         11.399000000000         0.151808568981
   28          5.944400000000         0.445653906135
   29          3.115000000000         0.467103289174
   30          1.606000000000         0.213858569915
   31      97285.000000000000         0.000002844198
   32      23066.000000000000         0.000025434704
   33       7508.300000000000         0.000148733089
   34       2884.200000000000         0.000681546969
   35       1235.000000000000         0.002593192533
   36        565.950000000000         0.008813821105
   37        273.290000000000         0.025008188160
   38        137.780000000000         0.061041920718
   39         71.579000000000         0.117930445419
   40         38.347000000000         0.156966893990
   41         20.853000000000         0.100547080372
   42         11.399000000000        -0.168633352327
   43          5.944400000000        -0.519744710373
   44          3.115000000000        -0.570208129866
   45          1.606000000000        -0.115273275534
   46          0.782220000000        -0.015745521323
   47          0.365320000000        -0.017073820002
   48          0.160620000000         0.013897821863
   49          0.067693000000        -0.004789308697
 P 49
    1      97285.000000000000        -0.000005041054
    2      23066.000000000000        -0.000044979518
    3       7508.300000000000        -0.000263131511
    4       2884.200000000000        -0.001200436754
    5       1235.000000000000        -0.004544021721
    6        565.950000000000        -0.015240746872
    7        273.290000000000        -0.042240124284
    8        137.780000000000        -0.099006750499
    9         71.579000000000        -0.179277776790
   10         38.347000000000        -0.229660752723
   11         20.853000000000        -0.183599992157
   12         11.399000000000        -0.072310984602
   13          5.944400000000        -0.008593446045
   14          3.115000000000         0.000265832321
   15          1.606000000000        -0.000123052231
   16      97285.000000000000         0.000021741605
   17      23066.000000000000         0.000193716993
   18       7508.300000000000         0.001136574742
   19       2884.200000000000         0.005189045165
   20       1235.000000000000         0.019792836654
   21        565.950000000000         0.066972627910
   22        273.290000000000         0.190101041439
   23        137.780000000000         0.460199578227
   24         71.579000000000         0.886497287205
   25         38.347000000000         1.163368755062
   26         20.853000000000         0.790609453579
   27         11.399000000000        -1.007876647106
   28          5.944400000000        -2.958753696832
   29          3.115000000000        -3.101158914171
   30          1.606000000000        -1.419834597264
   31      97285.000000000000        -0.000019507456
   32      23066.000000000000        -0.000174448594
   33       7508.300000000000        -0.001020113242
   34       2884.200000000000        -0.004674515233
   35       1235.000000000000        -0.017785887905
   36        565.950000000000        -0.060451213011
   37        273.290000000000        -0.171523257785
   38        137.780000000000        -0.418667239556
   39         71.579000000000        -0.808847648666
   40         38.347000000000        -1.076586310438
   41         20.853000000000        -0.689620642490
   42         11.399000000000         1.156602860538
   43          5.944400000000         3.564764683101
   44          3.115000000000         3.910877326496
   45          1.606000000000         0.790622960324
   46          0.782220000000         0.223197065754
   47          0.365320000000        -0.033216999102
   48          0.160620000000        -0.006761962589
   49          0.067693000000         0.004549313119
 P 49
    1      97285.000000000000        -0.000016031872
    2      23066.000000000000        -0.000143046657
    3       7508.300000000000        -0.000836827178
    4       2884.200000000000        -0.003817703543
    5       1235.000000000000        -0.014451180174
    6        565.950000000000        -0.048469570030
    7        273.290000000000        -0.134334667402
    8        137.780000000000        -0.314867418700
    9         71.579000000000        -0.570150323326
   10         38.347000000000        -0.730381393412
   11         20.853000000000        -0.583896101150
   12         11.399000000000        -0.229967885530
   13          5.944400000000        -0.027329410979
   14          3.115000000000         0.000845416463
   15          1.606000000000        -0.000391338351
   16      97285.000000000000         0.000068913329
   17      23066.000000000000         0.000614015523
   18       7508.300000000000         0.003602546812
   19       2884.200000000000         0.016447469248
   20       1235.000000000000         0.062736411393
   21        565.950000000000         0.212279948051
   22        273.290000000000         0.602554214464
   23        137.780000000000         1.458672678785
   24         71.579000000000         2.809888217725
   25         38.347000000000         3.687474518986
   26         20.853000000000         2.505957119663
   27         11.399000000000        -3.194618592181
   28          5.944400000000        -9.378220635162
   29          3.115000000000        -9.829595668248
   30          1.606000000000        -4.500382080751
   31      97285.000000000000        -0.000054223755
   32      23066.000000000000        -0.000484904731
   33       7508.300000000000        -0.002835550153
   34       2884.200000000000        -0.012993481353
   35       1235.000000000000        -0.049438410467
   36        565.950000000000        -0.168032762715
   37        273.290000000000        -0.476773342337
   38        137.780000000000        -1.163745265263
   39         71.579000000000        -2.248307325054
   40         38.347000000000        -2.992525096416
   41         20.853000000000        -1.916898867885
   42         11.399000000000         3.214942502231
   43          5.944400000000         9.908771524932
   44          3.115000000000        10.870840948910
   45          1.606000000000         2.197649206232
   46          0.782220000000         0.510230619624
   47          0.365320000000        -0.115581820449
   48          0.160620000000         0.015263346254
   49          0.067693000000        -0.000279619255
 P 49
    1      97285.000000000000        -0.000024675163
    2      23066.000000000000        -0.000220167654
    3       7508.300000000000        -0.001287987294
    4       2884.200000000000        -0.005875948807
    5       1235.000000000000        -0.022242270501
    6        565.950000000000        -0.074601055050
    7        273.290000000000        -0.206758754243
    8        137.780000000000        -0.484622447067
    9         71.579000000000        -0.877536475595
   10         38.347000000000        -1.124153205907
   11         20.853000000000        -0.898693038930
   12         11.399000000000        -0.353950878412
   13          5.944400000000        -0.042063564659
   14          3.115000000000         0.001301207336
   15          1.606000000000        -0.000602321288
   16      97285.000000000000         0.000103367901
   17      23066.000000000000         0.000921004638
   18       7508.300000000000         0.005403710817
   19       2884.200000000000         0.024670704399
   20       1235.000000000000         0.094102711925
   21        565.950000000000         0.318413475611
   22        273.290000000000         0.903813023474
   23        137.780000000000         2.187964721558
   24         71.579000000000         4.214746996580
   25         38.347000000000         5.531099798142
   26         20.853000000000         3.758859579193
   27         11.399000000000        -4.791830874863
   28          5.944400000000       -14.067046157199
   29          3.115000000000       -14.744094999580
   30          1.606000000000        -6.750436454608
   31      97285.000000000000        -0.000079781427
   32      23066.000000000000        -0.000713458362
   33       7508.300000000000        -0.004172050379
   34       2884.200000000000        -0.019117792270
   35       1235.000000000000        -0.072740571662
   36        565.950000000000        -0.247232851992
   37        273.290000000000        -0.701494347144
   38        137.780000000000        -1.712261682029
   39         71.579000000000        -3.308018169462
   40         38.347000000000        -4.403013449809
   41         20.853000000000        -2.820404583183
   42         11.399000000000         4.730264449457
   43          5.944400000000        14.579143997023
   44          3.115000000000        15.994672514562
   45          1.606000000000         3.233482995544
   46          0.782220000000         2.809790283092
   47          0.365320000000        -0.182685482763
   48          0.160620000000         0.039853402333
   49          0.067693000000        -0.006455554945
 P 49
    1      97285.000000000000        -0.000028925115
    2      23066.000000000000        -0.000258088457
    3       7508.300000000000        -0.001509825114
    4       2884.200000000000        -0.006887998909
    5       1235.000000000000        -0.026073190897
    6        565.950000000000        -0.087450044695
    7        273.290000000000        -0.242370061487
    8        137.780000000000        -0.568091893974
    9         71.579000000000        -1.028679875374
   10         38.347000000000        -1.317772892539
   11         20.853000000000        -1.053480361212
   12         11.399000000000        -0.414913972945
   13          5.944400000000        -0.049308426093
   14          3.115000000000         0.001525322123
   15          1.606000000000        -0.000706062716
   16      97285.000000000000         0.000120142416
   17      23066.000000000000         0.001070465020
   18       7508.300000000000         0.006280623536
   19       2884.200000000000         0.028674259583
   20       1235.000000000000         0.109373674360
   21        565.950000000000         0.370085527620
   22        273.290000000000         1.050483554506
   23        137.780000000000         2.543027040040
   24         71.579000000000         4.898714990066
   25         38.347000000000         6.428685165372
   26         20.853000000000         4.368846286879
   27         11.399000000000        -5.569447882779
   28          5.944400000000       -16.349842572315
   29          3.115000000000       -17.136762716244
   30          1.606000000000        -7.845895442005
   31      97285.000000000000        -0.000092225880
   32      23066.000000000000        -0.000824744909
   33       7508.300000000000        -0.004822814467
   34       2884.200000000000        -0.022099820654
   35       1235.000000000000        -0.084086779754
   36        565.950000000000        -0.285796686753
   37        273.290000000000        -0.810914725021
   38        137.780000000000        -1.979343406971
   39         71.579000000000        -3.824008924913
   40         38.347000000000        -5.089803582100
   41         20.853000000000        -3.260336475029
   42         11.399000000000         5.468099794283
   43          5.944400000000        16.853225679614
   44          3.115000000000        18.489550937591
   45          1.606000000000         3.737847617543
   46          0.782220000000         5.279927337938
   47          0.365320000000        -3.338898598477
   48          0.160620000000         0.401012383517
   49          0.067693000000        -0.083191381078
 P 49
    1      97285.000000000000        -0.000021286372
    2      23066.000000000000        -0.000189930681
    3       7508.300000000000        -0.001111100106
    4       2884.200000000000        -0.005068968747
    5       1235.000000000000        -0.019187603183
    6        565.950000000000        -0.064355634972
    7        273.290000000000        -0.178363307414
    8        137.780000000000        -0.418066276431
    9         71.579000000000        -0.757019013471
[...]
  BAS[ATNO][ 13].a[ 38] =        71.579000000000;     BAS[ATNO][ 13].d[ 38] =        -2.799633227684;
  BAS[ATNO][ 13].a[ 39] =        38.347000000000;     BAS[ATNO][ 13].d[ 39] =        -3.726346750396;
  BAS[ATNO][ 13].a[ 40] =        20.853000000000;     BAS[ATNO][ 13].d[ 40] =        -2.386957381155;
  BAS[ATNO][ 13].a[ 41] =        11.399000000000;     BAS[ATNO][ 13].d[ 41] =         4.003304954817;
  BAS[ATNO][ 13].a[ 42] =         5.944400000000;     BAS[ATNO][ 13].d[ 42] =        12.338582762953;
  BAS[ATNO][ 13].a[ 43] =         3.115000000000;     BAS[ATNO][ 13].d[ 43] =        13.536569131051;
  BAS[ATNO][ 13].a[ 44] =         1.606000000000;     BAS[ATNO][ 13].d[ 44] =         2.736552815533;
  BAS[ATNO][ 13].a[ 45] =         0.782220000000;     BAS[ATNO][ 13].d[ 45] =         4.745692882838;
  BAS[ATNO][ 13].a[ 46] =         0.365320000000;     BAS[ATNO][ 13].d[ 46] =        -5.102794952304;
  BAS[ATNO][ 13].a[ 47] =         0.160620000000;     BAS[ATNO][ 13].d[ 47] =         3.283515949512;
  BAS[ATNO][ 13].a[ 48] =         0.067693000000;     BAS[ATNO][ 13].d[ 48] =        -0.466869695915;

  // Basis function  15 L = p
  InitBFNGauss(BAS[ATNO][ 14]);
  BAS[ATNO][ 14].l  = 1;
  BAS[ATNO][ 14].ng = 49;
  BAS[ATNO][ 14].a[  0] =     97285.000000000000;     BAS[ATNO][ 14].d[  0] =        -0.000009557377;
  BAS[ATNO][ 14].a[  1] =     23066.000000000000;     BAS[ATNO][ 14].d[  1] =        -0.000085277056;
  BAS[ATNO][ 14].a[  2] =      7508.300000000000;     BAS[ATNO][ 14].d[  2] =        -0.000498873302;
  BAS[ATNO][ 14].a[  3] =      2884.200000000000;     BAS[ATNO][ 14].d[  3] =        -0.002275918401;
  BAS[ATNO][ 14].a[  4] =      1235.000000000000;     BAS[ATNO][ 14].d[  4] =        -0.008615049989;
  BAS[ATNO][ 14].a[  5] =       565.950000000000;     BAS[ATNO][ 14].d[  5] =        -0.028895063500;
  BAS[ATNO][ 14].a[  6] =       273.290000000000;     BAS[ATNO][ 14].d[  6] =        -0.080083416100;
  BAS[ATNO][ 14].a[  7] =       137.780000000000;     BAS[ATNO][ 14].d[  7] =        -0.187707752553;
  BAS[ATNO][ 14].a[  8] =        71.579000000000;     BAS[ATNO][ 14].d[  8] =        -0.339894283920;
  BAS[ATNO][ 14].a[  9] =        38.347000000000;     BAS[ATNO][ 14].d[  9] =        -0.435415802721;
  BAS[ATNO][ 14].a[ 10] =        20.853000000000;     BAS[ATNO][ 14].d[ 10] =        -0.348088809327;
  BAS[ATNO][ 14].a[ 11] =        11.399000000000;     BAS[ATNO][ 14].d[ 11] =        -0.137095019645;
  BAS[ATNO][ 14].a[ 12] =         5.944400000000;     BAS[ATNO][ 14].d[ 12] =        -0.016292388506;
  BAS[ATNO][ 14].a[ 13] =         3.115000000000;     BAS[ATNO][ 14].d[ 13] =         0.000503993792;
  BAS[ATNO][ 14].a[ 14] =         1.606000000000;     BAS[ATNO][ 14].d[ 14] =        -0.000233295787;
  BAS[ATNO][ 14].a[ 15] =     97285.000000000000;     BAS[ATNO][ 14].d[ 15] =         0.000039521570;
  BAS[ATNO][ 14].a[ 16] =     23066.000000000000;     BAS[ATNO][ 14].d[ 16] =         0.000352135899;
  BAS[ATNO][ 14].a[ 17] =      7508.300000000000;     BAS[ATNO][ 14].d[ 17] =         0.002066048844;
  BAS[ATNO][ 14].a[ 18] =      2884.200000000000;     BAS[ATNO][ 14].d[ 18] =         0.009432569957;
  BAS[ATNO][ 14].a[ 19] =      1235.000000000000;     BAS[ATNO][ 14].d[ 19] =         0.035979127270;
  BAS[ATNO][ 14].a[ 20] =       565.950000000000;     BAS[ATNO][ 14].d[ 20] =         0.121741857691;
  BAS[ATNO][ 14].a[ 21] =       273.290000000000;     BAS[ATNO][ 14].d[ 21] =         0.345562876295;
  BAS[ATNO][ 14].a[ 22] =       137.780000000000;     BAS[ATNO][ 14].d[ 22] =         0.836544022687;
  BAS[ATNO][ 14].a[ 23] =        71.579000000000;     BAS[ATNO][ 14].d[ 23] =         1.611461726227;
  BAS[ATNO][ 14].a[ 24] =        38.347000000000;     BAS[ATNO][ 14].d[ 24] =         2.114754607069;
  BAS[ATNO][ 14].a[ 25] =        20.853000000000;     BAS[ATNO][ 14].d[ 25] =         1.437158232996;
  BAS[ATNO][ 14].a[ 26] =        11.399000000000;     BAS[ATNO][ 14].d[ 26] =        -1.832103340880;
  BAS[ATNO][ 14].a[ 27] =         5.944400000000;     BAS[ATNO][ 14].d[ 27] =        -5.378378939897;
  BAS[ATNO][ 14].a[ 28] =         3.115000000000;     BAS[ATNO][ 14].d[ 28] =        -5.637241048860;
  BAS[ATNO][ 14].a[ 29] =         1.606000000000;     BAS[ATNO][ 14].d[ 29] =        -2.580954441810;
  BAS[ATNO][ 14].a[ 30] =     97285.000000000000;     BAS[ATNO][ 14].d[ 30] =        -0.000030255787;
  BAS[ATNO][ 14].a[ 31] =     23066.000000000000;     BAS[ATNO][ 14].d[ 31] =        -0.000270567291;
  BAS[ATNO][ 14].a[ 32] =      7508.300000000000;     BAS[ATNO][ 14].d[ 32] =        -0.001582181144;
  BAS[ATNO][ 14].a[ 33] =      2884.200000000000;     BAS[ATNO][ 14].d[ 33] =        -0.007250106711;
  BAS[ATNO][ 14].a[ 34] =      1235.000000000000;     BAS[ATNO][ 14].d[ 34] =        -0.027585659440;
  BAS[ATNO][ 14].a[ 35] =       565.950000000000;     BAS[ATNO][ 14].d[ 35] =        -0.093758972490;
  BAS[ATNO][ 14].a[ 36] =       273.290000000000;     BAS[ATNO][ 14].d[ 36] =        -0.266030135825;
  BAS[ATNO][ 14].a[ 37] =       137.780000000000;     BAS[ATNO][ 14].d[ 37] =        -0.649346940134;
  BAS[ATNO][ 14].a[ 38] =        71.579000000000;     BAS[ATNO][ 14].d[ 38] =        -1.254511210986;
  BAS[ATNO][ 14].a[ 39] =        38.347000000000;     BAS[ATNO][ 14].d[ 39] =        -1.669770071367;
  BAS[ATNO][ 14].a[ 40] =        20.853000000000;     BAS[ATNO][ 14].d[ 40] =        -1.069591818383;
  BAS[ATNO][ 14].a[ 41] =        11.399000000000;     BAS[ATNO][ 14].d[ 41] =         1.793874603699;
  BAS[ATNO][ 14].a[ 42] =         5.944400000000;     BAS[ATNO][ 14].d[ 42] =         5.528899375368;
  BAS[ATNO][ 14].a[ 43] =         3.115000000000;     BAS[ATNO][ 14].d[ 43] =         6.065715167710;
  BAS[ATNO][ 14].a[ 44] =         1.606000000000;     BAS[ATNO][ 14].d[ 44] =         1.226244978304;
  BAS[ATNO][ 14].a[ 45] =         0.782220000000;     BAS[ATNO][ 14].d[ 45] =         2.322654951638;
  BAS[ATNO][ 14].a[ 46] =         0.365320000000;     BAS[ATNO][ 14].d[ 46] =        -3.136745790953;
  BAS[ATNO][ 14].a[ 47] =         0.160620000000;     BAS[ATNO][ 14].d[ 47] =         3.447413321292;
  BAS[ATNO][ 14].a[ 48] =         0.067693000000;     BAS[ATNO][ 14].d[ 48] =        -2.280280102753;

  // Basis function  16 L = d
  InitBFNGauss(BAS[ATNO][ 15]);
  BAS[ATNO][ 15].l  = 2;
  BAS[ATNO][ 15].ng = 13;
  BAS[ATNO][ 15].a[  0] =      2219.700000000000;     BAS[ATNO][ 15].d[  0] =        -0.000066389458;
  BAS[ATNO][ 15].a[  1] =       670.130000000000;     BAS[ATNO][ 15].d[  1] =        -0.000673666900;
  BAS[ATNO][ 15].a[  2] =       263.090000000000;     BAS[ATNO][ 15].d[  2] =        -0.004010805512;
  BAS[ATNO][ 15].a[  3] =       116.690000000000;     BAS[ATNO][ 15].d[  3] =        -0.018354021599;
  BAS[ATNO][ 15].a[  4] =        54.856000000000;     BAS[ATNO][ 15].d[  4] =        -0.064671984640;
  BAS[ATNO][ 15].a[  5] =        27.847000000000;     BAS[ATNO][ 15].d[  5] =        -0.154355442717;
  BAS[ATNO][ 15].a[  6] =        14.745000000000;     BAS[ATNO][ 15].d[  6] =        -0.300930797057;
  BAS[ATNO][ 15].a[  7] =         7.882700000000;     BAS[ATNO][ 15].d[  7] =        -0.430605231256;
  BAS[ATNO][ 15].a[  8] =         4.170300000000;     BAS[ATNO][ 15].d[  8] =        -0.472092741367;
  BAS[ATNO][ 15].a[  9] =         2.168200000000;     BAS[ATNO][ 15].d[  9] =         0.657437866095;
  BAS[ATNO][ 15].a[ 10] =         1.103200000000;     BAS[ATNO][ 15].d[ 10] =        -0.486955624776;
  BAS[ATNO][ 15].a[ 11] =         0.523790000000;     BAS[ATNO][ 15].d[ 11] =         0.223766733175;
  BAS[ATNO][ 15].a[ 12] =         0.218000000000;     BAS[ATNO][ 15].d[ 12] =        -0.061660485992;

  // Basis function  17 L = d
  InitBFNGauss(BAS[ATNO][ 16]);
  BAS[ATNO][ 16].l  = 2;
  BAS[ATNO][ 16].ng = 13;
  BAS[ATNO][ 16].a[  0] =      2219.700000000000;     BAS[ATNO][ 16].d[  0] =        -0.000029548217;
  BAS[ATNO][ 16].a[  1] =       670.130000000000;     BAS[ATNO][ 16].d[  1] =        -0.000299831577;
  BAS[ATNO][ 16].a[  2] =       263.090000000000;     BAS[ATNO][ 16].d[  2] =        -0.001785104987;
  BAS[ATNO][ 16].a[  3] =       116.690000000000;     BAS[ATNO][ 16].d[  3] =        -0.008168896596;
  BAS[ATNO][ 16].a[  4] =        54.856000000000;     BAS[ATNO][ 16].d[  4] =        -0.028783814617;
  BAS[ATNO][ 16].a[  5] =        27.847000000000;     BAS[ATNO][ 16].d[  5] =        -0.068699584110;
  BAS[ATNO][ 16].a[  6] =        14.745000000000;     BAS[ATNO][ 16].d[  6] =        -0.133936453679;
  BAS[ATNO][ 16].a[  7] =         7.882700000000;     BAS[ATNO][ 16].d[  7] =        -0.191651164235;
  BAS[ATNO][ 16].a[  8] =         4.170300000000;     BAS[ATNO][ 16].d[  8] =        -0.210116173568;
  BAS[ATNO][ 16].a[  9] =         2.168200000000;     BAS[ATNO][ 16].d[  9] =         1.799830369954;
  BAS[ATNO][ 16].a[ 10] =         1.103200000000;     BAS[ATNO][ 16].d[ 10] =        -0.889793047973;
  BAS[ATNO][ 16].a[ 11] =         0.523790000000;     BAS[ATNO][ 16].d[ 11] =         0.392786321338;
  BAS[ATNO][ 16].a[ 12] =         0.218000000000;     BAS[ATNO][ 16].d[ 12] =        -0.104781249715;

  // Basis function  18 L = d
  InitBFNGauss(BAS[ATNO][ 17]);
  BAS[ATNO][ 17].l  = 2;
  BAS[ATNO][ 17].ng = 13;
  BAS[ATNO][ 17].a[  0] =      2219.700000000000;     BAS[ATNO][ 17].d[  0] =         0.000015535985;
  BAS[ATNO][ 17].a[  1] =       670.130000000000;     BAS[ATNO][ 17].d[  1] =         0.000157646696;
  BAS[ATNO][ 17].a[  2] =       263.090000000000;     BAS[ATNO][ 17].d[  2] =         0.000938579937;
  BAS[ATNO][ 17].a[  3] =       116.690000000000;     BAS[ATNO][ 17].d[  3] =         0.004295076485;
  BAS[ATNO][ 17].a[  4] =        54.856000000000;     BAS[ATNO][ 17].d[  4] =         0.015134073968;
  BAS[ATNO][ 17].a[  5] =        27.847000000000;     BAS[ATNO][ 17].d[  5] =         0.036121153549;
  BAS[ATNO][ 17].a[  6] =        14.745000000000;     BAS[ATNO][ 17].d[  6] =         0.070421666621;
  BAS[ATNO][ 17].a[  7] =         7.882700000000;     BAS[ATNO][ 17].d[  7] =         0.100767147587;
  BAS[ATNO][ 17].a[  8] =         4.170300000000;     BAS[ATNO][ 17].d[  8] =         0.110475757123;
  BAS[ATNO][ 17].a[  9] =         2.168200000000;     BAS[ATNO][ 17].d[  9] =        -1.737121675386;
  BAS[ATNO][ 17].a[ 10] =         1.103200000000;     BAS[ATNO][ 17].d[ 10] =         2.376017918501;
  BAS[ATNO][ 17].a[ 11] =         0.523790000000;     BAS[ATNO][ 17].d[ 11] =        -0.485018605318;
  BAS[ATNO][ 17].a[ 12] =         0.218000000000;     BAS[ATNO][ 17].d[ 12] =         0.127425019576;

  // Basis function  19 L = d
  InitBFNGauss(BAS[ATNO][ 18]);
  BAS[ATNO][ 18].l  = 2;
  BAS[ATNO][ 18].ng = 13;
  BAS[ATNO][ 18].a[  0] =      2219.700000000000;     BAS[ATNO][ 18].d[  0] =         0.000008711596;
  BAS[ATNO][ 18].a[  1] =       670.130000000000;     BAS[ATNO][ 18].d[  1] =         0.000088398277;
  BAS[ATNO][ 18].a[  2] =       263.090000000000;     BAS[ATNO][ 18].d[  2] =         0.000526296151;
  BAS[ATNO][ 18].a[  3] =       116.690000000000;     BAS[ATNO][ 18].d[  3] =         0.002408406715;
  BAS[ATNO][ 18].a[  4] =        54.856000000000;     BAS[ATNO][ 18].d[  4] =         0.008486229637;
  BAS[ATNO][ 18].a[  5] =        27.847000000000;     BAS[ATNO][ 18].d[  5] =         0.020254453918;
  BAS[ATNO][ 18].a[  6] =        14.745000000000;     BAS[ATNO][ 18].d[  6] =         0.039488008029;
  BAS[ATNO][ 18].a[  7] =         7.882700000000;     BAS[ATNO][ 18].d[  7] =         0.056503830766;
  BAS[ATNO][ 18].a[  8] =         4.170300000000;     BAS[ATNO][ 18].d[  8] =         0.061947803761;
  BAS[ATNO][ 18].a[  9] =         2.168200000000;     BAS[ATNO][ 18].d[  9] =        -1.289209035293;
  BAS[ATNO][ 18].a[ 10] =         1.103200000000;     BAS[ATNO][ 18].d[ 10] =         2.747978553738;
  BAS[ATNO][ 18].a[ 11] =         0.523790000000;     BAS[ATNO][ 18].d[ 11] =        -2.339003986515;
  BAS[ATNO][ 18].a[ 12] =         0.218000000000;     BAS[ATNO][ 18].d[ 12] =         0.220558428576;

  // Basis function  20 L = d
  InitBFNGauss(BAS[ATNO][ 19]);
  BAS[ATNO][ 19].l  = 2;
  BAS[ATNO][ 19].ng = 13;
  BAS[ATNO][ 19].a[  0] =      2219.700000000000;     BAS[ATNO][ 19].d[  0] =        -0.000004190463;
  BAS[ATNO][ 19].a[  1] =       670.130000000000;     BAS[ATNO][ 19].d[  1] =        -0.000042521454;
  BAS[ATNO][ 19].a[  2] =       263.090000000000;     BAS[ATNO][ 19].d[  2] =        -0.000253159658;
  BAS[ATNO][ 19].a[  3] =       116.690000000000;     BAS[ATNO][ 19].d[  3] =        -0.001158494925;
  BAS[ATNO][ 19].a[  4] =        54.856000000000;     BAS[ATNO][ 19].d[  4] =        -0.004082057200;
  BAS[ATNO][ 19].a[  5] =        27.847000000000;     BAS[ATNO][ 19].d[  5] =        -0.009742823724;
  BAS[ATNO][ 19].a[  6] =        14.745000000000;     BAS[ATNO][ 19].d[  6] =        -0.018994572898;
  BAS[ATNO][ 19].a[  7] =         7.882700000000;     BAS[ATNO][ 19].d[  7] =        -0.027179546047;
  BAS[ATNO][ 19].a[  8] =         4.170300000000;     BAS[ATNO][ 19].d[  8] =        -0.029798213006;
  BAS[ATNO][ 19].a[  9] =         2.168200000000;     BAS[ATNO][ 19].d[  9] =         0.684158983324;
  BAS[ATNO][ 19].a[ 10] =         1.103200000000;     BAS[ATNO][ 19].d[ 10] =        -1.745896685523;
  BAS[ATNO][ 19].a[ 11] =         0.523790000000;     BAS[ATNO][ 19].d[ 11] =         2.344057513228;
  BAS[ATNO][ 19].a[ 12] =         0.218000000000;     BAS[ATNO][ 19].d[ 12] =        -1.794436181046;

  // Basis function  21 L = f
  InitBFNGauss(BAS[ATNO][ 20]);
  BAS[ATNO][ 20].l  = 3;
  BAS[ATNO][ 20].ng = 4;
  BAS[ATNO][ 20].a[  0] =         8.460000000000;     BAS[ATNO][ 20].d[  0] =         0.831425364122;
  BAS[ATNO][ 20].a[  1] =         2.490000000000;     BAS[ATNO][ 20].d[  1] =         0.306220265621;
  BAS[ATNO][ 20].a[  2] =         0.730000000000;     BAS[ATNO][ 20].d[  2] =        -0.048375693845;
  BAS[ATNO][ 20].a[  3] =         0.293000000000;     BAS[ATNO][ 20].d[  3] =         0.018416663356;

  // Basis function  22 L = f
  InitBFNGauss(BAS[ATNO][ 21]);
  BAS[ATNO][ 21].l  = 3;
  BAS[ATNO][ 21].ng = 4;
  BAS[ATNO][ 21].a[  0] =         8.460000000000;     BAS[ATNO][ 21].d[  0] =        -0.697574769597;
  BAS[ATNO][ 21].a[  1] =         2.490000000000;     BAS[ATNO][ 21].d[  1] =         0.973765780874;
  BAS[ATNO][ 21].a[  2] =         0.730000000000;     BAS[ATNO][ 21].d[  2] =         0.202548963665;
  BAS[ATNO][ 21].a[  3] =         0.293000000000;     BAS[ATNO][ 21].d[  3] =        -0.052198540612;

  // Basis function  23 L = f
  InitBFNGauss(BAS[ATNO][ 22]);
  BAS[ATNO][ 22].l  = 3;
  BAS[ATNO][ 22].ng = 4;
  BAS[ATNO][ 22].a[  0] =         8.460000000000;     BAS[ATNO][ 22].d[  0] =         0.343635684947;
  BAS[ATNO][ 22].a[  1] =         2.490000000000;     BAS[ATNO][ 22].d[  1] =        -0.777315206311;
  BAS[ATNO][ 22].a[  2] =         0.730000000000;     BAS[ATNO][ 22].d[  2] =         1.215309257860;
  BAS[ATNO][ 22].a[  3] =         0.293000000000;     BAS[ATNO][ 22].d[  3] =        -0.127984936718;

  // Basis function  24 L = f
  InitBFNGauss(BAS[ATNO][ 23]);
  BAS[ATNO][ 23].l  = 3;
  BAS[ATNO][ 23].ng = 4;
  BAS[ATNO][ 23].a[  0] =         8.460000000000;     BAS[ATNO][ 23].d[  0] =        -0.116214061470;
  BAS[ATNO][ 23].a[  1] =         2.490000000000;     BAS[ATNO][ 23].d[  1] =         0.314437240760;
  BAS[ATNO][ 23].a[  2] =         0.730000000000;     BAS[ATNO][ 23].d[  2] =        -0.887440563710;
  BAS[ATNO][ 23].a[  3] =         0.293000000000;     BAS[ATNO][ 23].d[  3] =         1.337858658532;

  // Basis function  25 L = g
  InitBFNGauss(BAS[ATNO][ 24]);
  BAS[ATNO][ 24].l  = 4;
  BAS[ATNO][ 24].ng = 2;
  BAS[ATNO][ 24].a[  0] =         2.250000000000;     BAS[ATNO][ 24].d[  0] =         0.994795351664;
  BAS[ATNO][ 24].a[  1] =         0.560000000000;     BAS[ATNO][ 24].d[  1] =         0.017412270207;

  // Basis function  26 L = g
  InitBFNGauss(BAS[ATNO][ 25]);
  BAS[ATNO][ 25].l  = 4;
  BAS[ATNO][ 25].ng = 2;
  BAS[ATNO][ 25].a[  0] =         2.250000000000;     BAS[ATNO][ 25].d[  0] =        -0.320708369654;
  BAS[ATNO][ 25].a[  1] =         0.560000000000;     BAS[ATNO][ 25].d[  1] =         1.045068640284;

  // Basis function  27 L = h
  InitBFNGauss(BAS[ATNO][ 26]);
  BAS[ATNO][ 26].l  = 5;
  BAS[ATNO][ 26].ng = 1;
  BAS[ATNO][ 26].a[  0] =         0.840000000000;     BAS[ATNO][ 26].d[  0] =         1.000000000000;

-------
TIMINGS
-------

Total SCF time: 0 days 0 hours 0 min 10 sec 

Total time                  ....      10.866 sec
Sum of individual times     ....      10.485 sec  ( 96.5%)

Fock matrix formation       ....       9.709 sec  ( 89.3%)
  XC integration            ....       0.046 sec  (  0.5% of F)
    Basis function eval.    ....       0.011 sec  ( 23.2% of XC)
    Density eval.           ....       0.004 sec  (  8.0% of XC)
    XC-Functional eval.     ....       0.002 sec  (  3.8% of XC)
    XC-Potential eval.      ....       0.009 sec  ( 18.4% of XC)
Diagonalization             ....       0.002 sec  (  0.0%)
Density matrix formation    ....       0.001 sec  (  0.0%)
Population analysis         ....       0.002 sec  (  0.0%)
Initial guess               ....       0.081 sec  (  0.7%)
Orbital Transformation      ....       0.000 sec  (  0.0%)
Orbital Orthonormalization  ....       0.000 sec  (  0.0%)
DIIS solution               ....       0.000 sec  (  0.0%)
SOSCF solution              ....       0.002 sec  (  0.0%)
Grid generation             ....       0.688 sec  (  6.3%)

-------------------------   --------------------
FINAL SINGLE POINT ENERGY     -1429.055248881242
-------------------------   --------------------


                            ***************************************
                            *     ORCA property calculations      *
                            ***************************************

                                    ---------------------
                                    Active property flags
                                    ---------------------
   (+) Dipole Moment


------------------------------------------------------------------------------
                       ORCA ELECTRIC PROPERTIES CALCULATION
------------------------------------------------------------------------------

Dipole Moment Calculation                       ... on
Quadrupole Moment Calculation                   ... off
Polarizability Calculation                      ... off
GBWName                                         ... Kr_pc-4_68.5179945_.gbw
Electron density file                           ... Kr_pc-4_68.5179945_.scfp
The origin for moment calculation is the CENTER OF MASS  = ( 0.000000,  0.000000  0.000000)

-------------
DIPOLE MOMENT
-------------
                                X             Y             Z
Electronic contribution:      0.00000      -0.00000      -0.00000
Nuclear contribution   :      0.00000       0.00000       0.00000
                        -----------------------------------------
Total Dipole Moment    :      0.00000      -0.00000      -0.00000
                        -----------------------------------------
Magnitude (a.u.)       :      0.00000
Magnitude (Debye)      :      0.00000



--------------------
Rotational spectrum 
--------------------
 
Rotational constants in cm-1:     0.000000     0.000000     0.000000 
Rotational constants in MHz :     0.000000     0.000000     0.000000 

 Dipole components along the rotational axes: 
x,y,z [a.u.] :     0.000000    -0.000000    -0.000000 
x,y,z [Debye]:     0.000000    -0.000000    -0.000000 

 

Timings for individual modules:

Sum of individual times         ...       13.947 sec (=   0.232 min)
GTO integral calculation        ...        2.283 sec (=   0.038 min)  16.4 %
Relativistic integrals          ...        0.508 sec (=   0.008 min)   3.6 %
SCF iterations                  ...       11.156 sec (=   0.186 min)  80.0 %
                             ****ORCA TERMINATED NORMALLY****
TOTAL RUN TIME: 0 days 0 hours 0 minutes 14 seconds 349 msec
