
                                 *****************
                                 * O   R   C   A *
                                 *****************

           --- An Ab Initio, DFT and Semiempirical electronic structure package ---

                  #######################################################
                  #                        -***-                        #
                  #          Department of theory and spectroscopy      #
                  #               Directorship: Frank Neese             #
                  #        Max Planck Institute fuer Kohlenforschung    #
                  #                Kaiser Wilhelm Platz 1               #
                  #                 D-45470 Muelheim/Ruhr               #
                  #                      Germany                        #
                  #                                                     #
                  #                  All rights reserved                #
                  #                        -***-                        #
                  #######################################################


                         Program Version 4.2.1 -  RELEASE  -


 With contributions from (in alphabetic order):
   Daniel Aravena         : Magnetic Suceptibility
   Michael Atanasov       : Ab Initio Ligand Field Theory (pilot matlab implementation)
   Alexander A. Auer      : GIAO ZORA, VPT2
   Ute Becker             : Parallelization
   Giovanni Bistoni       : ED, misc. LED, open-shell LED, HFLD
   Martin Brehm           : Molecular dynamics
   Dmytro Bykov           : SCF Hessian
   Vijay G. Chilkuri      : MRCI spin determinant printing, contributions to CSF-ICE
   Dipayan Datta          : RHF DLPNO-CCSD density
   Achintya Kumar Dutta   : EOM-CC, STEOM-CC
   Dmitry Ganyushin       : Spin-Orbit,Spin-Spin,Magnetic field MRCI
   Miquel Garcia          : C-PCM Hessian, Gaussian charge scheme
   Yang Guo               : DLPNO-NEVPT2, CIM, IAO-localization
   Andreas Hansen         : Spin unrestricted coupled pair/coupled cluster methods
   Benjamin Helmich-Paris : CASSCF linear response (MC-RPA)
   Lee Huntington         : MR-EOM, pCC
   Robert Izsak           : Overlap fitted RIJCOSX, COSX-SCS-MP3, EOM
   Christian Kollmar      : KDIIS, OOCD, Brueckner-CCSD(T), CCSD density
   Simone Kossmann        : Meta GGA functionals, TD-DFT gradient, OOMP2, MP2 Hessian
   Martin Krupicka        : AUTO-CI
   Lucas Lang             : DCDCAS
   Dagmar Lenk            : GEPOL surface, SMD
   Dimitrios Liakos       : Extrapolation schemes; Compound Job, initial MDCI parallelization
   Dimitrios Manganas     : Further ROCIS development; embedding schemes
   Dimitrios Pantazis     : SARC Basis sets
   Taras Petrenko         : DFT Hessian,TD-DFT gradient, ASA, ECA, R-Raman, ABS, FL, XAS/XES, NRVS
   Peter Pinski           : DLPNO-MP2, DLPNO-MP2 Gradient
   Christoph Reimann      : Effective Core Potentials
   Marius Retegan         : Local ZFS, SOC
   Christoph Riplinger    : Optimizer, TS searches, QM/MM, DLPNO-CCSD(T), (RO)-DLPNO pert. Triples
   Tobias Risthaus        : Range-separated hybrids, TD-DFT gradient, RPA, STAB
   Michael Roemelt        : Original ROCIS implementation
   Masaaki Saitow         : Open-shell DLPNO-CCSD energy and density
   Barbara Sandhoefer     : DKH picture change effects
   Avijit Sen             : IP-ROCIS
   Kantharuban Sivalingam : CASSCF convergence, NEVPT2, FIC-MRCI
   Bernardo de Souza      : ESD, SOC TD-DFT
   Georgi Stoychev        : AutoAux, RI-MP2 NMR
   Willem Van den Heuvel  : Paramagnetic NMR
   Boris Wezisla          : Elementary symmetry handling
   Frank Wennmohs         : Technical directorship


 We gratefully acknowledge several colleagues who have allowed us to
 interface, adapt or use parts of their codes:
   Stefan Grimme, W. Hujo, H. Kruse,             : VdW corrections, initial TS optimization,
                  C. Bannwarth                     DFT functionals, gCP, sTDA/sTD-DF
   Ed Valeev, F. Pavosevic, A. Kumar             : LibInt (2-el integral package), F12 methods
   Garnet Chan, S. Sharma, J. Yang, R. Olivares  : DMRG
   Ulf Ekstrom                                   : XCFun DFT Library
   Mihaly Kallay                                 : mrcc  (arbitrary order and MRCC methods)
   Andreas Klamt, Michael Diedenhofen            : otool_cosmo (COSMO solvation model)
   Jiri Pittner, Ondrej Demel                    : Mk-CCSD
   Frank Weinhold                                : gennbo (NPA and NBO analysis)
   Christopher J. Cramer and Donald G. Truhlar   : smd solvation model
   Lars Goerigk                                  : TD-DFT with DH, B97 family of functionals
   V. Asgeirsson, H. Jonsson                     : NEB implementation
   FAccTs GmbH                                   : IRC, NEB, NEB-TS, Multilevel, MM, QM/MM, CI optimization
   S Lehtola, MJT Oliveira, MAL Marques          : LibXC Library


 Your calculation uses the libint2 library for the computation of 2-el integrals
 For citations please refer to: http://libint.valeyev.net

 Your ORCA version has been built with support for libXC version: 4.2.3
 For citations please refer to: https://tddft.org/programs/libxc/

 This ORCA versions uses:
   CBLAS   interface :  Fast vector & matrix operations
   LAPACKE interface :  Fast linear algebra routines
   SCALAPACK package :  Parallel linear algebra routines


----- Orbital basis set information -----
Your calculation utilizes the basis: pc-4
   H, C-F              : F. Jensen, J. Chem. Phys. 115, 9113 (2001).
                         F. Jensen, J. Chem. Phys. 116, 7372 (2002).
                         F. Jensen, J. Chem. Phys. 117, 9234 (2002).
   Si-Cl               : F. Jensen, T. Helgaker, J. Chem. Phys. 121, 3463 (2004).
   He-B, Ne-Mg, Al, Ar : F. Jensen, J. Phys. Chem. A 111, 11198 (2007).
   K, Ca, Ga-Kr        : F. Jensen, J. Chem. Phys. 136, 094110 (2012).
   Sc-Zn               : F. Jensen, J. Chem. Phys. 138, 014107 (2013).

================================================================================
                                        WARNINGS
                       Please study these warnings very carefully!
================================================================================


INFO   : the flag for use of LIBINT has been found!

================================================================================
                                       INPUT FILE
================================================================================
NAME = Kr_pc-4_2192.575824_.inp
|  1> ! LDA pc-4 nori grid5 finalgrid6 verytightscf
|  2> %Pal NProcs 18 End
|  3> 
|  4> % REL
|  5>   Method ZORA
|  6>   ModelPot 1, 0, 0, 0
|  7>   velit 2192.575824
|  8> END
|  9> 
| 10> *xyz 34 1
| 11> Kr 0.0 0.0 0.0
| 12> **                         ****END OF INPUT****
================================================================================

                       ****************************
                       * Single Point Calculation *
                       ****************************

---------------------------------
CARTESIAN COORDINATES (ANGSTROEM)
---------------------------------
  Kr     0.000000    0.000000    0.000000

----------------------------
CARTESIAN COORDINATES (A.U.)
----------------------------
  NO LB      ZA    FRAG     MASS         X           Y           Z
   0 Kr   36.0000    0    83.800    0.000000    0.000000    0.000000

--------------------------------
INTERNAL COORDINATES (ANGSTROEM)
--------------------------------
 Kr     0   0   0     0.000000000000     0.00000000     0.00000000

---------------------------
INTERNAL COORDINATES (A.U.)
---------------------------
 Kr     0   0   0     0.000000000000     0.00000000     0.00000000

---------------------
BASIS SET INFORMATION
---------------------
There are 1 groups of distinct atoms

 Group   1 Type Kr  : 84s49p13d4f2g1h contracted to 8s7p5d4f2g1h pattern {202020201111/1515151111/91111/1111/11/1}

Atom   0Kr   basis set group =>   1


           ************************************************************
           *        Program running with 18 parallel MPI-processes    *
           *              working on a common directory               *
           ************************************************************
------------------------------------------------------------------------------
                           ORCA GTO INTEGRAL CALCULATION
------------------------------------------------------------------------------

                         BASIS SET STATISTICS AND STARTUP INFO

 # of primitive gaussian shells          ...  153
 # of primitive gaussian functions       ...  353
 # of contracted shells                  ...   27
 # of contracted basis functions         ...  111
 Highest angular momentum                ...    5
 Maximum contraction depth               ...   20
 Integral package used                   ... LIBINT
 Integral threshhold            Thresh   ...  1.000e-12
 Primitive cut-off              TCut     ...  1.000e-14


------------------------------ INTEGRAL EVALUATION ----------------------------


 * One electron integrals 
 Pre-screening matrix                    ... done
 Shell pair data                         ... done (   0.000 sec)



           ************************************************************
           *        Program running with 18 parallel MPI-processes    *
           *              working on a common directory               *
           ************************************************************
------------------------------------------------------------------------------
                          ORCA RELATIVISTIC HAMILTONIAN
------------------------------------------------------------------------------

Relativistic Method            ... ZORA(MP)
Treatment of potential         ... Van Wuellen
Nucleus model                  ... Point Nucleus
Speed of light used            ... 2192.57582400000001


            *************************************************
            *         ZERO ORDER REGULAR APPROXIMATION      *
            *                     ZORA(MP)                  *
            *            Programmed by FN according to      *
            *                   C. van Wuellen              *
            *       J. Chem. Phys. (1998) vol 109, 392-399  *
            *************************************************

Terms included in model potential: +V(e,N)
Basis function cutoff value   ... 1.000000e-12
Loading the fitted atomic densities  (DKH4)  ... done
Calculating the cutoffs                      ... done
Number of fit functions                      ... 27
Setting up the integration grid ... done


           ************************************************************
           *        Program running with 18 parallel MPI-processes    *
           *              working on a common directory               *
           ************************************************************
-------------------------------------------------------------------------------
                                 ORCA SCF
-------------------------------------------------------------------------------

------------
SCF SETTINGS
------------
Hamiltonian:
 Density Functional     Method          .... DFT(GTOs)
 Exchange Functional    Exchange        .... Slater
   X-Alpha parameter    XAlpha          ....  0.666667
 Correlation Functional Correlation     .... VWN-5
 Gradients option       PostSCFGGA      .... off
   Density functional embedding theory  .... OFF

Relativistic Settings:
 Scalar relativistic method             .... ZORA
 Speed of light used       Velit        ....       2192.57582
Orbital energies will be scaled


General Settings:
 Integral files         IntName         .... Kr_pc-4_2192.575824_
 Hartree-Fock type      HFTyp           .... RHF
 Total Charge           Charge          ....   34
 Multiplicity           Mult            ....    1
 Number of Electrons    NEL             ....    2
 Basis Dimension        Dim             ....  111
 Nuclear Repulsion      ENuc            ....      0.0000000000 Eh

Convergence Acceleration:
 DIIS                   CNVDIIS         .... on
   Start iteration      DIISMaxIt       ....    12
   Startup error        DIISStart       ....  0.200000
   # of expansion vecs  DIISMaxEq       ....     5
   Bias factor          DIISBfac        ....   1.050
   Max. coefficient     DIISMaxC        ....  10.000
 Newton-Raphson         CNVNR           .... off
 SOSCF                  CNVSOSCF        .... on
   Start iteration      SOSCFMaxIt      ....   150
   Startup grad/error   SOSCFStart      ....  0.003300
 Level Shifting         CNVShift        .... on
   Level shift para.    LevelShift      ....    0.2500
   Turn off err/grad.   ShiftErr        ....    0.0010
 Zerner damping         CNVZerner       .... off
 Static damping         CNVDamp         .... on
   Fraction old density DampFac         ....    0.7000
   Max. Damping (<1)    DampMax         ....    0.9800
   Min. Damping (>=0)   DampMin         ....    0.0000
   Turn off err/grad.   DampErr         ....    0.1000
 Fernandez-Rico         CNVRico         .... off

SCF Procedure:
 Maximum # iterations   MaxIter         ....   125
 SCF integral mode      SCFMode         .... Direct
   Integral package                     .... LIBINT
 Reset frequency        DirectResetFreq ....    20
 Integral Threshold     Thresh          ....  1.000e-12 Eh
 Primitive CutOff       TCut            ....  1.000e-14 Eh

Convergence Tolerance:
 Convergence Check Mode ConvCheckMode   .... Total+1el-Energy
 Convergence forced     ConvForced      .... 0
 Energy Change          TolE            ....  1.000e-09 Eh
 1-El. energy change                    ....  1.000e-06 Eh
 Orbital Gradient       TolG            ....  2.000e-06
 Orbital Rotation angle TolX            ....  2.000e-06
 DIIS Error             TolErr          ....  1.000e-08


Diagonalization of the overlap matrix:
Smallest eigenvalue                        ... 1.976e-05
Time for diagonalization                   ...    0.003 sec
Threshold for overlap eigenvalues          ... 1.000e-08
Number of eigenvalues below threshold      ... 0
Time for construction of square roots      ...    0.002 sec
Total time needed                          ...    0.006 sec

-------------------
DFT GRID GENERATION
-------------------

General Integration Accuracy     IntAcc      ...  5.010
Radial Grid Type                 RadialGrid  ... Gauss-Chebyshev
Angular Grid (max. acc.)         AngularGrid ... Lebedev-434
Angular grid pruning method      GridPruning ... 3 (G Style)
Weight generation scheme         WeightScheme... Becke
Basis function cutoff            BFCut       ...    1.0000e-12
Integration weight cutoff        WCut        ...    1.0000e-14
Grids for H and He will be reduced by one unit

# of grid points (after initial pruning)     ...  16106 (   0.0 sec)
# of grid points (after weights+screening)   ...  16106 (   0.0 sec)
Grid point division into batches done        ...    0.2 sec
Reduced shell lists constructed in    0.2 sec

Total number of grid points                  ...    16106
Total number of batches                      ...      252
Average number of points per batch           ...       63
Average number of grid points per atom       ...    16106
Average number of shells per batch           ...     2.00 ( 7.41%)
Average number of basis functions per batch  ...     4.93 ( 4.44%)
Average number of large shells per batch     ...     0.93 (46.67%)
Average number of large basis fcns per batch ...     2.80 (56.76%)
Maximum spatial batch extension              ...  17.34, 17.34, 17.34 au
Average spatial batch extension              ...   0.86,  0.87,  0.87 au

Time for grid setup =    0.245 sec

------------------------------
INITIAL GUESS: MODEL POTENTIAL
------------------------------
Loading ZORA relativistic densities                ... done
Calculating cut-offs                               ... done
Setting up the integral package                    ... done
Initializing the effective Hamiltonian             ... done
Starting the Coulomb interaction                   ... done (   0.0 sec)
Reading the grid                                   ... done
Mapping shells                                     ... done
Starting the XC term evaluation                    ... done (   0.0 sec)
  promolecular density results
     # of electrons  =     36.000000565
     EX              =    -91.042004939
     EC              =     -3.295965580
     EX+EC           =    -94.337970520
Transforming the Hamiltonian                       ... done (   0.0 sec)
Diagonalizing the Hamiltonian                      ... done (   0.0 sec)
Back transforming the eigenvectors                 ... done (   0.0 sec)
Now organizing SCF variables                       ... done
                      ------------------
                      INITIAL GUESS DONE (   0.3 sec)
                      ------------------
--------------
SCF ITERATIONS
--------------
ITER       Energy         Delta-E        Max-DP      RMS-DP      [F,P]     Damp
               ***  Starting incremental Fock matrix formation  ***
  0  -1270.8269847777   0.000000000000 0.19498200  0.00254200  6.1818989 0.7000
  1  -1270.8439553628  -0.016970585059 0.13583138  0.00177098  4.3183692 0.7000
  2  -1270.8557966467  -0.011841283941 0.09457716  0.00123321  3.0159612 0.7000
                      *** Initiating the SOSCF procedure ***
                      *** Re-Reading the Fockian *** 
                      *** Removing any level shift *** 
ITER      Energy       Delta-E        Grad      Rot      Max-DP    RMS-DP
  3  -1270.86406702  -0.0082703689  0.002788  0.002788  0.219505  0.002862
               *** Restarting incremental Fock matrix formation ***
  4  -1270.88330577  -0.0192387591  0.006488  0.000013  0.002733  0.000038
  5  -1270.88330606  -0.0000002830  0.000044  0.000000  0.000019  0.000000
                 **** Energy Check signals convergence ****
              ***Rediagonalizing the Fockian in SOSCF/NRSCF***

               *****************************************************
               *                     SUCCESS                       *
               *           SCF CONVERGED AFTER   6 CYCLES          *
               *****************************************************

Setting up the final grid:

General Integration Accuracy     IntAcc      ...  5.340
Radial Grid Type                 RadialGrid  ... Gauss-Chebyshev
Angular Grid (max. acc.)         AngularGrid ... Lebedev-590
Angular grid pruning method      GridPruning ... 3 (G Style)
Weight generation scheme         WeightScheme... Becke
Basis function cutoff            BFCut       ...    1.0000e-12
Integration weight cutoff        WCut        ...    1.0000e-14
Grids for H and He will be reduced by one unit

# of grid points (after initial pruning)     ...  24180 (   0.0 sec)
# of grid points (after weights+screening)   ...  24180 (   0.0 sec)
Grid point division into batches done        ...    0.4 sec
Reduced shell lists constructed in    0.4 sec

Total number of grid points                  ...    24180
Total number of batches                      ...      378
Average number of points per batch           ...       63
Average number of grid points per atom       ...    24180
Average number of shells per batch           ...     1.36 ( 5.05%)
Average number of basis functions per batch  ...     4.09 ( 3.69%)
Average number of large shells per batch     ...     0.95 (70.00%)
Average number of large basis fcns per batch ...     2.86 (70.00%)
Maximum spatial batch extension              ...  17.58, 17.58, 17.58 au
Average spatial batch extension              ...   0.77,  0.77,  0.77 au

Final grid set up in    0.5 sec
Final integration                            ... done (   0.0 sec)
Change in XC energy                          ...    -0.000068598
Integrated number of electrons               ...     1.999998898
Previous integrated no of electrons          ...     1.999995424

----------------
TOTAL SCF ENERGY
----------------

Total Energy       :        -1270.88337466 Eh          -34582.49476 eV

Components:
Nuclear Repulsion  :            0.00000000 Eh               0.00000 eV
Electronic Energy  :        -1270.88337466 Eh          -34582.49476 eV
One Electron Energy:        -1295.96055052 Eh          -35264.87941 eV
Two Electron Energy:           25.07717586 Eh             682.38465 eV

Virial components:
Potential Energy   :        -2538.01233415 Eh          -69062.82670 eV
Kinetic Energy     :         1267.12895949 Eh           34480.33193 eV
Virial Ratio       :            2.00296293


DFT components:
N(Alpha)           :        0.999999449090 electrons
N(Beta)            :        0.999999449090 electrons
N(Total)           :        1.999998898180 electrons
E(X)               :      -19.048993081831 Eh       
E(C)               :       -0.277852546417 Eh       
E(XC)              :      -19.326845628247 Eh       
DFET-embed. en.    :        0.000000000000 Eh       

---------------
SCF CONVERGENCE
---------------

  Last Energy change         ...   -1.3642e-11  Tolerance :   1.0000e-09
  Last MAX-Density change    ...    0.0000e+00  Tolerance :   1.0000e-08
  Last RMS-Density change    ...    0.0000e+00  Tolerance :   1.0000e-09
  Last Orbital Gradient      ...    6.8350e-11  Tolerance :   2.0000e-06
  Last Orbital Rotation      ...    0.0000e+00  Tolerance :   2.0000e-06

================================================================================
                                        WARNING
Number of found core electrons (2) does not match given number of chemical core electrons (18)
================================================================================
             **** THE GBW FILE WAS UPDATED (Kr_pc-4_2192.575824_.gbw) ****
             **** DENSITY FILE WAS UPDATED (Kr_pc-4_2192.575824_.scfp) ****
             **** ENERGY FILE WAS UPDATED (Kr_pc-4_2192.575824_.en.tmp) ****
             **** THE GBW FILE WAS UPDATED (Kr_pc-4_2192.575824_.gbw) ****
             **** DENSITY FILE WAS UPDATED (Kr_pc-4_2192.575824_.scfp) ****
----------------
ORBITAL ENERGIES
----------------

  NO   OCC          E(Eh)            E(eV) 
   0   2.0000    -616.424299    -16773.7579 
   1   0.0000    -148.571262     -4042.8296 
   2   0.0000    -146.430476     -3984.5758 
   3   0.0000    -146.430476     -3984.5758 
   4   0.0000    -146.430476     -3984.5758 
   5   0.0000     -63.557376     -1729.4841 
   6   0.0000     -61.271092     -1667.2712 
   7   0.0000     -61.271092     -1667.2712 
   8   0.0000     -61.271092     -1667.2712 
   9   0.0000     -61.271092     -1667.2712 
  10   0.0000     -61.271092     -1667.2712 
  11   0.0000     -60.232081     -1638.9982 
  12   0.0000     -60.232081     -1638.9982 
  13   0.0000     -60.232081     -1638.9982 
  14   0.0000     -35.055014      -953.8954 
  15   0.0000     -35.055014      -953.8954 
  16   0.0000     -35.055014      -953.8954 
  17   0.0000     -35.055014      -953.8954 
  18   0.0000     -35.055014      -953.8954 
  19   0.0000     -35.055014      -953.8954 
  20   0.0000     -35.055014      -953.8954 
  21   0.0000     -33.870534      -921.6641 
  22   0.0000     -31.636910      -860.8841 
  23   0.0000     -31.636910      -860.8841 
  24   0.0000     -31.636910      -860.8841 
  25   0.0000     -31.636910      -860.8841 
  26   0.0000     -31.636910      -860.8841 
  27   0.0000     -29.385087      -799.6089 
  28   0.0000     -29.385087      -799.6089 
  29   0.0000     -29.385087      -799.6089 
  30   0.0000     -22.192125      -603.8784 
  31   0.0000     -22.192125      -603.8784 
  32   0.0000     -22.192125      -603.8784 
  33   0.0000     -22.192125      -603.8784 
  34   0.0000     -22.192125      -603.8784 
  35   0.0000     -22.192125      -603.8784 
  36   0.0000     -22.192125      -603.8784 
  37   0.0000     -20.702857      -563.3534 
  38   0.0000     -20.702857      -563.3534 
  39   0.0000     -20.702857      -563.3534 
  40   0.0000     -20.702857      -563.3534 
  41   0.0000     -20.702857      -563.3534 
  42   0.0000     -20.702857      -563.3534 
  43   0.0000     -20.702857      -563.3534 
  44   0.0000     -20.702857      -563.3534 
  45   0.0000     -20.702857      -563.3534 
  46   0.0000     -20.625907      -561.2595 
  47   0.0000     -19.470198      -529.8110 
  48   0.0000     -19.470198      -529.8110 
  49   0.0000     -19.470198      -529.8110 
  50   0.0000     -19.470198      -529.8110 
  51   0.0000     -19.470198      -529.8110 
  52   0.0000     -17.345959      -472.0076 
  53   0.0000     -17.345959      -472.0076 
  54   0.0000     -17.345959      -472.0076 
  55   0.0000     -15.167284      -412.7228 
  56   0.0000     -15.167284      -412.7228 
  57   0.0000     -15.167284      -412.7228 
  58   0.0000     -15.167284      -412.7228 
  59   0.0000     -15.167284      -412.7228 
  60   0.0000     -15.167284      -412.7228 
  61   0.0000     -15.167284      -412.7228 
  62   0.0000     -13.446273      -365.8917 
  63   0.0000     -13.194654      -359.0448 
  64   0.0000     -13.194654      -359.0448 
  65   0.0000     -13.194654      -359.0448 
  66   0.0000     -13.194654      -359.0448 
  67   0.0000     -13.194654      -359.0448 
  68   0.0000     -12.910608      -351.3155 
  69   0.0000     -12.910608      -351.3155 
  70   0.0000     -12.910608      -351.3155 
  71   0.0000     -12.910608      -351.3155 
  72   0.0000     -12.910608      -351.3155 
  73   0.0000     -12.910608      -351.3155 
  74   0.0000     -12.910608      -351.3155 
  75   0.0000     -12.910608      -351.3155 
  76   0.0000     -12.910608      -351.3155 
  77   0.0000     -12.910608      -351.3155 
  78   0.0000     -12.910608      -351.3155 
  79   0.0000     -12.650188      -344.2291 
  80   0.0000     -12.650188      -344.2291 
  81   0.0000     -12.650188      -344.2291 
  82   0.0000     -12.650188      -344.2291 
  83   0.0000     -12.650188      -344.2291 
  84   0.0000     -12.650188      -344.2291 
  85   0.0000     -12.650188      -344.2291 
  86   0.0000     -12.650188      -344.2291 
  87   0.0000     -12.650188      -344.2291 
  88   0.0000     -11.757355      -319.9339 
  89   0.0000     -11.757355      -319.9339 
  90   0.0000     -11.757355      -319.9339 
  91   0.0000     -10.067110      -273.9400 
  92   0.0000     -10.067110      -273.9400 
  93   0.0000     -10.067110      -273.9400 
  94   0.0000     -10.067110      -273.9400 
  95   0.0000     -10.067110      -273.9400 
  96   0.0000     -10.067110      -273.9400 
  97   0.0000     -10.067110      -273.9400 
  98   0.0000      -9.137388      -248.6410 
  99   0.0000      -9.137388      -248.6410 
 100   0.0000      -9.137388      -248.6410 
 101   0.0000      -9.137388      -248.6410 
 102   0.0000      -9.137388      -248.6410 
 103   0.0000      -8.817994      -239.9498 
 104   0.0000      -8.460792      -230.2299 
 105   0.0000      -8.460792      -230.2299 
 106   0.0000      -8.460792      -230.2299 
 107   0.0000      -5.818652      -158.3336 
 108   0.0000      -5.818652      -158.3336 
 109   0.0000      -5.818652      -158.3336 
 110   0.0000     152.775734      4157.2391 

                    ********************************
                    * MULLIKEN POPULATION ANALYSIS *
                    ********************************

-----------------------
MULLIKEN ATOMIC CHARGES
-----------------------
   0 Kr:   34.000000
Sum of atomic charges:   34.0000000

--------------------------------
MULLIKEN REDUCED ORBITAL CHARGES
--------------------------------
  0 Krs       :     2.000000  s :     2.000000
      pz      :     0.000000  p :     0.000000
      px      :     0.000000
      py      :     0.000000
      dz2     :     0.000000  d :     0.000000
      dxz     :     0.000000
      dyz     :     0.000000
      dx2y2   :     0.000000
      dxy     :     0.000000
      f0      :     0.000000  f :     0.000000
      f+1     :     0.000000
      f-1     :     0.000000
      f+2     :     0.000000
      f-2     :     0.000000
      f+3     :     0.000000
      f-3     :     0.000000
      g0      :     0.000000  g :     0.000000
      g+1     :     0.000000
      g-1     :     0.000000
      g+2     :     0.000000
      g-2     :     0.000000
      g+3     :     0.000000
      g-3     :     0.000000
      g+4     :     0.000000
      g-4     :     0.000000
      h0      :     0.000000  h :     0.000000
      h+1     :     0.000000
      h-1     :     0.000000
      h+2     :     0.000000
      h-2     :     0.000000
      h+3     :     0.000000
      h-3     :     0.000000
      h+4     :     0.000000
      h-4     :     0.000000
      h+5     :     0.000000
      h-5     :     0.000000


                     *******************************
                     * LOEWDIN POPULATION ANALYSIS *
                     *******************************

----------------------
LOEWDIN ATOMIC CHARGES
----------------------
   0 Kr:   34.000000

-------------------------------
LOEWDIN REDUCED ORBITAL CHARGES
-------------------------------
  0 Krs       :     2.000000  s :     2.000000
      pz      :     0.000000  p :     0.000000
      px      :     0.000000
      py      :     0.000000
      dz2     :     0.000000  d :     0.000000
      dxz     :     0.000000
      dyz     :     0.000000
      dx2y2   :     0.000000
      dxy     :     0.000000
      f0      :     0.000000  f :     0.000000
      f+1     :     0.000000
      f-1     :     0.000000
      f+2     :     0.000000
      f-2     :     0.000000
      f+3     :     0.000000
      f-3     :     0.000000
      g0      :     0.000000  g :     0.000000
      g+1     :     0.000000
      g-1     :     0.000000
      g+2     :     0.000000
      g-2     :     0.000000
      g+3     :     0.000000
      g-3     :     0.000000
      g+4     :     0.000000
      g-4     :     0.000000
      h0      :     0.000000  h :     0.000000
      h+1     :     0.000000
      h-1     :     0.000000
      h+2     :     0.000000
      h-2     :     0.000000
      h+3     :     0.000000
      h-3     :     0.000000
      h+4     :     0.000000
      h-4     :     0.000000
      h+5     :     0.000000
      h-5     :     0.000000


                      *****************************
                      * MAYER POPULATION ANALYSIS *
                      *****************************

  NA   - Mulliken gross atomic population
  ZA   - Total nuclear charge
  QA   - Mulliken gross atomic charge
  VA   - Mayer's total valence
  BVA  - Mayer's bonded valence
  FA   - Mayer's free valence

  ATOM       NA         ZA         QA         VA         BVA        FA
  0 Kr     2.0000    36.0000    34.0000    -0.0000     0.0000    -0.0000

  Mayer bond orders larger than 0.100000


--------------------------
ATOM BASIS FOR ELEMENT Kr
--------------------------
 NewGTO Kr
 S 84
    1   81180000.000000000000         0.000000506252
    2   12174000.000000000000         0.000003926990
    3    2775000.000000000000         0.000020617793
    4     787190.000000000000         0.000086996983
    5     257190.000000000000         0.000316861576
    6      92980.000000000000         0.001035053190
    7      36316.000000000000         0.003099749989
    8      15086.000000000000         0.008616427281
    9       6592.600000000000         0.022289292101
   10       3007.200000000000         0.053211422568
   11       1422.900000000000         0.114482511173
   12        693.380000000000         0.212231794139
   13        347.150000000000         0.303908975770
   14        177.900000000000         0.287649845566
   15         92.353000000000         0.134935585242
   16         45.341000000000         0.016592214441
   17         23.694000000000        -0.001137531296
   18         12.583000000000         0.000518243820
   19          6.605000000000        -0.000240860020
   20          3.354100000000         0.000111498125
   21   81180000.000000000000        -0.000000007722
   22   12174000.000000000000        -0.000000059887
   23    2775000.000000000000        -0.000000314590
   24     787190.000000000000        -0.000001326720
   25     257190.000000000000        -0.000004838042
   26      92980.000000000000        -0.000015804309
   27      36316.000000000000        -0.000047505320
   28      15086.000000000000        -0.000132624750
   29       6592.600000000000        -0.000347998231
   30       3007.200000000000        -0.000851372782
   31       1422.900000000000        -0.001936350747
   32        693.380000000000        -0.003975487776
   33        347.150000000000        -0.006862217907
   34        177.900000000000        -0.008907969374
   35         92.353000000000        -0.004313769081
   36         45.341000000000         0.013173232569
   37         23.694000000000         0.026247773510
   38         12.583000000000         0.016135556288
   39          6.605000000000         0.002550968612
   40          3.354100000000        -0.000001726264
   41   81180000.000000000000         0.000000013457
   42   12174000.000000000000         0.000000104435
   43    2775000.000000000000         0.000000547799
   44     787190.000000000000         0.000002314643
   45     257190.000000000000         0.000008420874
   46      92980.000000000000         0.000027591775
   47      36316.000000000000         0.000082675865
   48      15086.000000000000         0.000231926542
   49       6592.600000000000         0.000606656318
   50       3007.200000000000         0.001497567601
   51       1422.900000000000         0.003407139617
   52        693.380000000000         0.007150400418
   53        347.150000000000         0.012527169214
   54        177.900000000000         0.017373574472
   55         92.353000000000         0.008574454308
   56         45.341000000000        -0.033202571183
   57         23.694000000000        -0.090410455064
   58         12.583000000000        -0.070099842578
   59          6.605000000000         0.055753991557
   60          3.354100000000         0.146266833405
   61   81180000.000000000000        -0.000000007719
   62   12174000.000000000000        -0.000000059803
   63    2775000.000000000000        -0.000000313792
   64     787190.000000000000        -0.000001325449
   65     257190.000000000000        -0.000004824379
   66      92980.000000000000        -0.000015798775
   67      36316.000000000000        -0.000047374674
   68      15086.000000000000        -0.000132805341
   69       6592.600000000000        -0.000347771966
   70       3007.200000000000        -0.000858040415
   71       1422.900000000000        -0.001956609511
   72        693.380000000000        -0.004108377956
   73        347.150000000000        -0.007240333719
   74        177.900000000000        -0.010086140047
   75         92.353000000000        -0.005088879034
   76         45.341000000000         0.020234718402
   77         23.694000000000         0.057361666253
   78         12.583000000000         0.048042984009
   79          6.605000000000        -0.044312373509
   80          3.354100000000        -0.156880172445
   81          1.662200000000         0.004701372931
   82          0.654060000000        -0.001668363354
   83          0.303170000000         0.000728983488
   84          0.129700000000        -0.000172488534
 S 84
    1   81180000.000000000000         0.000000054774
    2   12174000.000000000000         0.000000424879
    3    2775000.000000000000         0.000002230733
    4     787190.000000000000         0.000009412602
    5     257190.000000000000         0.000034282704
    6      92980.000000000000         0.000111987140
    7      36316.000000000000         0.000335376133
    8      15086.000000000000         0.000932250689
    9       6592.600000000000         0.002411580489
   10       3007.200000000000         0.005757187258
   11       1422.900000000000         0.012386386658
   12        693.380000000000         0.022962328800
   13        347.150000000000         0.032881302518
   14        177.900000000000         0.031122152833
   15         92.353000000000         0.014599298318
   16         45.341000000000         0.001795187592
   17         23.694000000000        -0.000123074715
   18         12.583000000000         0.000056071170
   19          6.605000000000        -0.000026059747
   20          3.354100000000         0.000012063492
   21   81180000.000000000000         0.000000035900
   22   12174000.000000000000         0.000000278412
   23    2775000.000000000000         0.000001462517
   24     787190.000000000000         0.000006167871
   25     257190.000000000000         0.000022491873
   26      92980.000000000000         0.000073473632
   27      36316.000000000000         0.000220850424
   28      15086.000000000000         0.000616567410
   29       6592.600000000000         0.001617830516
   30       3007.200000000000         0.003957999624
   31       1422.900000000000         0.009002020849
   32        693.380000000000         0.018481891202
   33        347.150000000000         0.031902189594
   34        177.900000000000         0.041412810222
   35         92.353000000000         0.020054548101
   36         45.341000000000        -0.061241856309
   37         23.694000000000        -0.122024898998
   38         12.583000000000        -0.075013586410
   39          6.605000000000        -0.011859355884
   40          3.354100000000         0.000008025334
   41   81180000.000000000000         0.000000184869
   42   12174000.000000000000         0.000001434741
   43    2775000.000000000000         0.000007525761
   44     787190.000000000000         0.000031799011
   45     257190.000000000000         0.000115687572
   46      92980.000000000000         0.000379061063
   47      36316.000000000000         0.001135816768
   48      15086.000000000000         0.003186250974
   49       6592.600000000000         0.008334359968
   50       3007.200000000000         0.020573868736
   51       1422.900000000000         0.046807932562
   52        693.380000000000         0.098233561914
   53        347.150000000000         0.172100635021
   54        177.900000000000         0.238681472898
   55         92.353000000000         0.117797485303
   56         45.341000000000        -0.456143242532
   57         23.694000000000        -1.242076039972
   58         12.583000000000        -0.963044979805
   59          6.605000000000         0.765958947966
   60          3.354100000000         2.009441597056
   61   81180000.000000000000        -0.000000098541
   62   12174000.000000000000        -0.000000763489
   63    2775000.000000000000        -0.000004006113
   64     787190.000000000000        -0.000016921730
   65     257190.000000000000        -0.000061591827
   66      92980.000000000000        -0.000201699613
   67      36316.000000000000        -0.000604822446
   68      15086.000000000000        -0.001695497694
   69       6592.600000000000        -0.004439931118
   70       3007.200000000000        -0.010954420452
   71       1422.900000000000        -0.024979619681
   72        693.380000000000        -0.052450792190
   73        347.150000000000        -0.092435808812
   74        177.900000000000        -0.128767616141
   75         92.353000000000        -0.064968642014
   76         45.341000000000         0.258332368959
   77         23.694000000000         0.732324257542
   78         12.583000000000         0.613354612815
   79          6.605000000000        -0.565726697805
   80          3.354100000000        -2.002855971836
   81          1.662200000000        -0.081730772964
   82          0.654060000000         0.065930263054
   83          0.303170000000        -0.038488093905
   84          0.129700000000         0.010549001600
 S 84
    1   81180000.000000000000         0.000000118895
    2   12174000.000000000000         0.000000922267
    3    2775000.000000000000         0.000004842159
    4     787190.000000000000         0.000020431538
    5     257190.000000000000         0.000074416023
    6      92980.000000000000         0.000243085775
    7      36316.000000000000         0.000727986865
    8      15086.000000000000         0.002023597357
    9       6592.600000000000         0.005234716329
   10       3007.200000000000         0.012496884215
   11       1422.900000000000         0.026886608509
   12        693.380000000000         0.049843361258
   13        347.150000000000         0.071374060283
   14        177.900000000000         0.067555548058
   15         92.353000000000         0.031690082766
   16         45.341000000000         0.003896738195
   17         23.694000000000        -0.000267153108
   18         12.583000000000         0.000121711330
   19          6.605000000000        -0.000056566798
   20          3.354100000000         0.000026185715
   21   81180000.000000000000        -0.000000252296
   22   12174000.000000000000        -0.000001956625
   23    2775000.000000000000        -0.000010278286
   24     787190.000000000000        -0.000043346592
   25     257190.000000000000        -0.000158068502
   26      92980.000000000000        -0.000516358366
   27      36316.000000000000        -0.001552093734
   28      15086.000000000000        -0.004333115577
   29       6592.600000000000        -0.011369797527
   30       3007.200000000000        -0.027816049886
   31       1422.900000000000        -0.063264447902
   32        693.380000000000        -0.129887128983
   33        347.150000000000        -0.224202370271
   34        177.900000000000        -0.291041158287
   35         92.353000000000        -0.140939455130
   36         45.341000000000         0.430395829221
   37         23.694000000000         0.857567205748
   38         12.583000000000         0.527180864062
   39          6.605000000000         0.083345241592
   40          3.354100000000        -0.000056400480
   41   81180000.000000000000         0.000000344617
   42   12174000.000000000000         0.000002674525
   43    2775000.000000000000         0.000014028893
   44     787190.000000000000         0.000059277055
   45     257190.000000000000         0.000215655088
   46      92980.000000000000         0.000706613905
   47      36316.000000000000         0.002117294549
   48      15086.000000000000         0.005939542370
   49       6592.600000000000         0.015536216249
   50       3007.200000000000         0.038352084021
   51       1422.900000000000         0.087255429959
   52        693.380000000000         0.183118783763
   53        347.150000000000         0.320815598621
   54        177.900000000000         0.444930023635
   55         92.353000000000         0.219588212203
   56         45.341000000000        -0.850304052576
   57         23.694000000000        -2.315374189333
   58         12.583000000000        -1.795227842457
   59          6.605000000000         1.427836558419
   60          3.354100000000         3.745832830733
   61   81180000.000000000000        -0.000000113590
   62   12174000.000000000000        -0.000000880091
   63    2775000.000000000000        -0.000004617937
   64     787190.000000000000        -0.000019506064
   65     257190.000000000000        -0.000070998305
   66      92980.000000000000        -0.000232503749
   67      36316.000000000000        -0.000697192641
   68      15086.000000000000        -0.001954438897
   69       6592.600000000000        -0.005118009953
   70       3007.200000000000        -0.012627410519
   71       1422.900000000000        -0.028794577833
   72        693.380000000000        -0.060461225487
   73        347.150000000000        -0.106552866912
   74        177.900000000000        -0.148433370591
   75         92.353000000000        -0.074890836733
   76         45.341000000000         0.297785618826
   77         23.694000000000         0.844166888926
   78         12.583000000000         0.707027863650
   79          6.605000000000        -0.652126078783
   80          3.354100000000        -2.308737799274
   81          1.662200000000        -1.021136459043
   82          0.654060000000         0.583431505646
   83          0.303170000000        -0.311544184470
   84          0.129700000000         0.081806030013
 S 84
    1   81180000.000000000000        -0.000000106909
    2   12174000.000000000000        -0.000000829291
    3    2775000.000000000000        -0.000004354007
    4     787190.000000000000        -0.000018371778
    5     257190.000000000000        -0.000066913937
    6      92980.000000000000        -0.000218579622
    7      36316.000000000000        -0.000654596486
    8      15086.000000000000        -0.001819592884
    9       6592.600000000000        -0.004706990030
   10       3007.200000000000        -0.011237038591
   11       1422.900000000000        -0.024176094792
   12        693.380000000000        -0.044818513504
   13        347.150000000000        -0.064178642931
   14        177.900000000000        -0.060745085534
   15         92.353000000000        -0.028495317461
   16         45.341000000000        -0.003503897189
   17         23.694000000000         0.000240220660
   18         12.583000000000        -0.000109441273
   19          6.605000000000         0.000050864142
   20          3.354100000000        -0.000023545861
   21   81180000.000000000000         0.000000186181
   22   12174000.000000000000         0.000001443880
   23    2775000.000000000000         0.000007584799
   24     787190.000000000000         0.000031987356
   25     257190.000000000000         0.000116645696
   26      92980.000000000000         0.000381043536
   27      36316.000000000000         0.001145358193
   28      15086.000000000000         0.003197596458
   29       6592.600000000000         0.008390273385
   30       3007.200000000000         0.020526685940
   31       1422.900000000000         0.046685617066
   32        693.380000000000         0.095849422014
   33        347.150000000000         0.165448784441
   34        177.900000000000         0.214772064196
   35         92.353000000000         0.104005419313
   36         45.341000000000        -0.317608001588
   37         23.694000000000        -0.632836537793
   38         12.583000000000        -0.389029933243
   39          6.605000000000        -0.061504117435
   40          3.354100000000         0.000041620393
   41   81180000.000000000000        -0.000000039930
   42   12174000.000000000000        -0.000000309891
   43    2775000.000000000000        -0.000001625495
   44     787190.000000000000        -0.000006868295
   45     257190.000000000000        -0.000024987455
   46      92980.000000000000        -0.000081873716
   47      36316.000000000000        -0.000245326015
   48      15086.000000000000        -0.000688201016
   49       6592.600000000000        -0.001800145389
   50       3007.200000000000        -0.004443767138
   51       1422.900000000000        -0.010110084555
   52        693.380000000000        -0.021217549307
   53        347.150000000000        -0.037172160289
   54        177.900000000000        -0.051553011223
   55         92.353000000000        -0.025443177504
   56         45.341000000000         0.098522760966
   57         23.694000000000         0.268277044089
   58         12.583000000000         0.208008891720
   59          6.605000000000        -0.165440114648
   60          3.354100000000        -0.434020973418
   61   81180000.000000000000        -0.000000096563
   62   12174000.000000000000        -0.000000748166
   63    2775000.000000000000        -0.000003925715
   64     787190.000000000000        -0.000016582133
   65     257190.000000000000        -0.000060355760
   66      92980.000000000000        -0.000197651769
   67      36316.000000000000        -0.000592684459
   68      15086.000000000000        -0.001661471297
   69       6592.600000000000        -0.004350827571
   70       3007.200000000000        -0.010734579716
   71       1422.900000000000        -0.024478311738
   72        693.380000000000        -0.051398174134
   73        347.150000000000        -0.090580744335
   74        177.900000000000        -0.126183420324
   75         92.353000000000        -0.063664807262
   76         45.341000000000         0.253147979846
   77         23.694000000000         0.717627477872
   78         12.583000000000         0.601045396629
   79          6.605000000000        -0.554373310906
   80          3.354100000000        -1.962661300384
   81          1.662200000000         3.792983926979
   82          0.654060000000        -1.372385572498
   83          0.303170000000         0.691948494767
   84          0.129700000000        -0.175750411098
 S 84
    1   81180000.000000000000        -0.000000076331
    2   12174000.000000000000        -0.000000592102
    3    2775000.000000000000        -0.000003108702
    4     787190.000000000000        -0.000013117200
    5     257190.000000000000        -0.000047775643
    6      92980.000000000000        -0.000156062885
    7      36316.000000000000        -0.000467373011
    8      15086.000000000000        -0.001299164635
    9       6592.600000000000        -0.003360727026
   10       3007.200000000000        -0.008023093112
   11       1422.900000000000        -0.017261403708
   12        693.380000000000        -0.031999810634
   13        347.150000000000        -0.045822680404
   14        177.900000000000        -0.043371167003
   15         92.353000000000        -0.020345270100
   16         45.341000000000        -0.002501735059
   17         23.694000000000         0.000171514293
   18         12.583000000000        -0.000078139584
   19          6.605000000000         0.000036316307
   20          3.354100000000        -0.000016811425
   21   81180000.000000000000         0.000000114623
   22   12174000.000000000000         0.000000888931
   23    2775000.000000000000         0.000004669617
   24     787190.000000000000         0.000019693163
   25     257190.000000000000         0.000071813461
   26      92980.000000000000         0.000234591212
   27      36316.000000000000         0.000705145059
   28      15086.000000000000         0.001968615021
   29       6592.600000000000         0.005165510542
   30       3007.200000000000         0.012637348956
   31       1422.900000000000         0.028742215661
   32        693.380000000000         0.059010139132
   33        347.150000000000         0.101859307901
   34        177.900000000000         0.132225412774
   35         92.353000000000         0.064031416520
   36         45.341000000000        -0.195536832350
   37         23.694000000000        -0.389608735853
   38         12.583000000000        -0.239508074278
   39          6.605000000000        -0.037865293820
   40          3.354100000000         0.000025623787
   41   81180000.000000000000         0.000000059346
   42   12174000.000000000000         0.000000460575
   43    2775000.000000000000         0.000002415889
   44     787190.000000000000         0.000010207989
   45     257190.000000000000         0.000037137553
   46      92980.000000000000         0.000121684639
   47      36316.000000000000         0.000364615274
   48      15086.000000000000         0.001022837313
   49       6592.600000000000         0.002675462299
   50       3007.200000000000         0.006604539564
   51       1422.900000000000         0.015026091908
   52        693.380000000000         0.031534538035
   53        347.150000000000         0.055247045056
   54        177.900000000000         0.076620554512
   55         92.353000000000         0.037814869057
   56         45.341000000000        -0.146429246288
   57         23.694000000000        -0.398726192581
   58         12.583000000000        -0.309152777869
   59          6.605000000000         0.245885022468
   60          3.354100000000         0.645062758980
   61   81180000.000000000000        -0.000000131987
   62   12174000.000000000000        -0.000001022628
   63    2775000.000000000000        -0.000005365845
   64     787190.000000000000        -0.000022665209
   65     257190.000000000000        -0.000082496983
   66      92980.000000000000        -0.000270159376
   67      36316.000000000000        -0.000810107921
   68      15086.000000000000        -0.002270974103
   69       6592.600000000000        -0.005946907875
   70       3007.200000000000        -0.014672508990
   71       1422.900000000000        -0.033458063430
   72        693.380000000000        -0.070253348709
   73        347.150000000000        -0.123809857553
   74        177.900000000000        -0.172473205101
   75         92.353000000000        -0.087019937583
   76         45.341000000000         0.346014106582
   77         23.694000000000         0.980885688938
   78         12.583000000000         0.821536028280
   79          6.605000000000        -0.757742510933
   80          3.354100000000        -2.682654219828
   81          1.662200000000         5.040912517880
   82          0.654060000000        -4.495700001874
   83          0.303170000000         1.511983388047
   84          0.129700000000        -0.345609917874
 S 84
    1   81180000.000000000000        -0.000000051674
    2   12174000.000000000000        -0.000000400838
    3    2775000.000000000000        -0.000002104513
    4     787190.000000000000        -0.000008880012
    5     257190.000000000000        -0.000032342898
    6      92980.000000000000        -0.000105650611
    7      36316.000000000000        -0.000316399664
    8      15086.000000000000        -0.000879501478
    9       6592.600000000000        -0.002275126884
   10       3007.200000000000        -0.005431430369
   11       1422.900000000000        -0.011685532126
   12        693.380000000000        -0.021663059477
   13        347.150000000000        -0.031020791416
   14        177.900000000000        -0.029361179075
   15         92.353000000000        -0.013773231389
   16         45.341000000000        -0.001693611128
   17         23.694000000000         0.000116110822
   18         12.583000000000        -0.000052898515
   19          6.605000000000         0.000024585218
   20          3.354100000000        -0.000011380908
   21   81180000.000000000000         0.000000077693
   22   12174000.000000000000         0.000000602528
   23    2775000.000000000000         0.000003165119
   24     787190.000000000000         0.000013348248
   25     257190.000000000000         0.000048675975
   26      92980.000000000000         0.000159008572
   27      36316.000000000000         0.000477955283
   28      15086.000000000000         0.001334349488
   29       6592.600000000000         0.003501241368
   30       3007.200000000000         0.008565737808
   31       1422.900000000000         0.019481798297
   32        693.380000000000         0.039997738573
   33        347.150000000000         0.069041388965
   34        177.900000000000         0.089623877704
   35         92.353000000000         0.043401217081
   36         45.341000000000        -0.132537072726
   37         23.694000000000        -0.264081200140
   38         12.583000000000        -0.162341276974
   39          6.605000000000        -0.025665523679
   40          3.354100000000         0.000017368092
   41   81180000.000000000000         0.000000030284
   42   12174000.000000000000         0.000000235029
   43    2775000.000000000000         0.000001232817
   44     787190.000000000000         0.000005209091
   45     257190.000000000000         0.000018951127
   46      92980.000000000000         0.000062095128
   47      36316.000000000000         0.000186061545
   48      15086.000000000000         0.000521949311
   49       6592.600000000000         0.001365276458
   50       3007.200000000000         0.003370267031
   51       1422.900000000000         0.007667747566
   52        693.380000000000         0.016091933868
   53        347.150000000000         0.028192320256
   54        177.900000000000         0.039099126638
   55         92.353000000000         0.019296758729
   56         45.341000000000        -0.074722190157
   57         23.694000000000        -0.203468194625
   58         12.583000000000        -0.157759281298
   59          6.605000000000         0.125474028388
   60          3.354100000000         0.329172643864
   61   81180000.000000000000        -0.000000076863
   62   12174000.000000000000        -0.000000595529
   63    2775000.000000000000        -0.000003124809
   64     787190.000000000000        -0.000013199125
   65     257190.000000000000        -0.000048042266
   66      92980.000000000000        -0.000157327796
   67      36316.000000000000        -0.000471767799
   68      15086.000000000000        -0.001322505835
   69       6592.600000000000        -0.003463192449
   70       3007.200000000000        -0.008544561883
   71       1422.900000000000        -0.019484363148
   72        693.380000000000        -0.040912163416
   73        347.150000000000        -0.072100892239
   74        177.900000000000        -0.100440079820
   75         92.353000000000        -0.050676216469
   76         45.341000000000         0.201501934539
   77         23.694000000000         0.571220537321
   78         12.583000000000         0.478422977106
   79          6.605000000000        -0.441272708051
   80          3.354100000000        -1.562248488461
   81          1.662200000000         3.919340313229
   82          0.654060000000        -6.338909569621
   83          0.303170000000         4.965783234263
   84          0.129700000000        -0.820980589566
 S 84
    1   81180000.000000000000        -0.000000031551
    2   12174000.000000000000        -0.000000244740
    3    2775000.000000000000        -0.000001284954
    4     787190.000000000000        -0.000005421875
    5     257190.000000000000        -0.000019747627
    6      92980.000000000000        -0.000064507171
    7      36316.000000000000        -0.000193184375
    8      15086.000000000000        -0.000536997862
    9       6592.600000000000        -0.001389125890
   10       3007.200000000000        -0.003316272423
   11       1422.900000000000        -0.007134843919
   12        693.380000000000        -0.013226830110
   13        347.150000000000        -0.018940387361
   14        177.900000000000        -0.017927076637
   15         92.353000000000        -0.008409531988
   16         45.341000000000        -0.001034069388
   17         23.694000000000         0.000070893870
   18         12.583000000000        -0.000032298285
   19          6.605000000000         0.000015011015
   20          3.354100000000        -0.000006948849
   21   81180000.000000000000         0.000000051353
   22   12174000.000000000000         0.000000398257
   23    2775000.000000000000         0.000002092074
   24     787190.000000000000         0.000008822897
   25     257190.000000000000         0.000032173743
   26      92980.000000000000         0.000105101149
   27      36316.000000000000         0.000315917870
   28      15086.000000000000         0.000881975497
   29       6592.600000000000         0.002314243099
   30       3007.200000000000         0.005661763222
   31       1422.900000000000         0.012877037749
   32        693.380000000000         0.026437620472
   33        347.150000000000         0.045634830954
   34        177.900000000000         0.059239400739
   35         92.353000000000         0.028687244483
   36         45.341000000000        -0.087604073436
   37         23.694000000000        -0.174551831984
   38         12.583000000000        -0.107303993194
   39          6.605000000000        -0.016964343447
   40          3.354100000000         0.000011479925
   41   81180000.000000000000        -0.000000007161
   42   12174000.000000000000        -0.000000055577
   43    2775000.000000000000        -0.000000291521
   44     787190.000000000000        -0.000001231778
   45     257190.000000000000        -0.000004481315
   46      92980.000000000000        -0.000014683444
   47      36316.000000000000        -0.000043997401
   48      15086.000000000000        -0.000123423746
   49       6592.600000000000        -0.000322842719
   50       3007.200000000000        -0.000796956665
   51       1422.900000000000        -0.001813168651
   52        693.380000000000        -0.003805210039
   53        347.150000000000        -0.006666551140
   54        177.900000000000        -0.009245650053
   55         92.353000000000        -0.004563045103
   56         45.341000000000         0.017669326165
   57         23.694000000000         0.048113497310
   58         12.583000000000         0.037304851357
   59          6.605000000000        -0.029670457039
   60          3.354100000000        -0.077838441257
   61   81180000.000000000000        -0.000000024012
   62   12174000.000000000000        -0.000000186045
   63    2775000.000000000000        -0.000000976197
   64     787190.000000000000        -0.000004123436
   65     257190.000000000000        -0.000015008510
   66      92980.000000000000        -0.000049149551
   67      36316.000000000000        -0.000147381302
   68      15086.000000000000        -0.000413153742
   69       6592.600000000000        -0.001081908965
   70       3007.200000000000        -0.002669339991
   71       1422.900000000000        -0.006086958052
   72        693.380000000000        -0.012781050149
   73        347.150000000000        -0.022524477871
   74        177.900000000000        -0.031377702619
   75         92.353000000000        -0.015831361873
   76         45.341000000000         0.062949649089
   77         23.694000000000         0.178450556611
   78         12.583000000000         0.149460393985
   79          6.605000000000        -0.137854567937
   80          3.354100000000        -0.488049875864
   81          1.662200000000         2.070172072868
   82          0.654060000000        -4.536191067024
   83          0.303170000000         5.917257470174
   84          0.129700000000        -3.318452818933
 S 84
    1   81180000.000000000000         0.000003917100
    2   12174000.000000000000         0.000030384923
    3    2775000.000000000000         0.000159529311
    4     787190.000000000000         0.000673135528
    5     257190.000000000000         0.002451703223
    6      92980.000000000000         0.008008680858
    7      36316.000000000000         0.023984186177
    8      15086.000000000000         0.066669246490
    9       6592.600000000000         0.172462467412
   10       3007.200000000000         0.411721161397
   11       1422.900000000000         0.885803652398
   12        693.380000000000         1.642134649896
   13        347.150000000000         2.351483016720
   14        177.900000000000         2.225678675325
   15         92.353000000000         1.044058459423
   16         45.341000000000         0.128381566781
   17         23.694000000000        -0.008801600932
   18         12.583000000000         0.004009889929
   19          6.605000000000        -0.001863644350
   20          3.354100000000         0.000862712089
   21   81180000.000000000000        -0.000008485545
   22   12174000.000000000000        -0.000065807682
   23    2775000.000000000000        -0.000345692230
   24     787190.000000000000        -0.001457887052
   25     257190.000000000000        -0.005316358508
   26      92980.000000000000        -0.017366813428
   27      36316.000000000000        -0.052201966861
   28      15086.000000000000        -0.145736788161
   29       6592.600000000000        -0.382403317921
   30       3007.200000000000        -0.935544343884
   31       1422.900000000000        -2.127789411055
   32        693.380000000000        -4.368527140358
   33        347.150000000000        -7.540655853526
   34        177.900000000000        -9.788661962859
   35         92.353000000000        -4.740252861901
   36         45.341000000000        14.475613371205
   37         23.694000000000        28.842777897515
   38         12.583000000000        17.730809284719
   39          6.605000000000         2.803171898304
   40          3.354100000000        -0.001896931817
   41   81180000.000000000000         0.000013767293
   42   12174000.000000000000         0.000106846162
   43    2775000.000000000000         0.000560448525
   44     787190.000000000000         0.002368094045
   45     257190.000000000000         0.008615332285
   46      92980.000000000000         0.028228935633
   47      36316.000000000000         0.084585048648
   48      15086.000000000000         0.237282281045
   49       6592.600000000000         0.620665465593
   50       3007.200000000000         1.532150023152
   51       1422.900000000000         3.485818631385
   52        693.380000000000         7.315520289083
   53        347.150000000000        12.816451554204
   54        177.900000000000        17.774771917058
   55         92.353000000000         8.772458994122
   56         45.341000000000       -33.969298073516
   57         23.694000000000       -92.498249009699
   58         12.583000000000       -71.718615835741
   59          6.605000000000        57.041484756224
   60          3.354100000000       149.644484905356
   61   81180000.000000000000        -0.000008208621
   62   12174000.000000000000        -0.000063600129
   63    2775000.000000000000        -0.000333717154
   64     787190.000000000000        -0.001409613783
   65     257190.000000000000        -0.005130721884
   66      92980.000000000000        -0.016801979647
   67      36316.000000000000        -0.050382914759
   68      15086.000000000000        -0.141238335849
   69       6592.600000000000        -0.369855107746
   70       3007.200000000000        -0.912525047954
   71       1422.900000000000        -2.080852085801
   72        693.380000000000        -4.369255486124
   73        347.150000000000        -7.700087032061
   74        177.900000000000       -10.726598965706
   75         92.353000000000        -5.412017315523
   76         45.341000000000        21.519601004709
   77         23.694000000000        61.004069648181
   78         12.583000000000        51.093661221581
   79          6.605000000000       -47.126161013087
   80          3.354100000000      -166.841892703700
   81          1.662200000000        12.640710581269
   82          0.654060000000        -7.024740840246
   83          0.303170000000         3.773700039141
   84          0.129700000000        -1.003428046012
 P 49
    1      97285.000000000000         0.000007759507
    2      23066.000000000000         0.000069235304
    3       7508.300000000000         0.000405028577
    4       2884.200000000000         0.001847787780
    5       1235.000000000000         0.006994444128
    6        565.950000000000         0.023459516482
    7        273.290000000000         0.065018656905
    8        137.780000000000         0.152397419541
    9         71.579000000000         0.275955633594
   10         38.347000000000         0.353508280077
   11         20.853000000000         0.282608659425
   12         11.399000000000         0.111305617065
   13          5.944400000000         0.013227572824
   14          3.115000000000        -0.000409185834
   15          1.606000000000         0.000189409736
   16      97285.000000000000        -0.000002443580
   17      23066.000000000000        -0.000021772217
   18       7508.300000000000        -0.000127741773
   19       2884.200000000000        -0.000583206545
   20       1235.000000000000        -0.002224554137
   21        565.950000000000        -0.007527179611
   22        273.290000000000        -0.021365813583
   23        137.780000000000        -0.051722696125
   24         71.579000000000        -0.099635097404
   25         38.347000000000        -0.130753202407
   26         20.853000000000        -0.088858083440
   27         11.399000000000         0.113277151949
   28          5.944400000000         0.332539892713
   29          3.115000000000         0.348545082921
   30          1.606000000000         0.159577880764
   31      97285.000000000000         0.000002132636
   32      23066.000000000000         0.000019071440
   33       7508.300000000000         0.000111522989
   34       2884.200000000000         0.000511037295
   35       1235.000000000000         0.001944426662
   36        565.950000000000         0.006608776067
   37        273.290000000000         0.018751630355
   38        137.780000000000         0.045770430316
   39         71.579000000000         0.088426562773
   40         38.347000000000         0.117696858139
   41         20.853000000000         0.075392174452
   42         11.399000000000        -0.126444597595
   43          5.944400000000        -0.389714785649
   44          3.115000000000        -0.427553248106
   45          1.606000000000        -0.086434164637
   46          0.782220000000        -0.011125423203
   47          0.365320000000        -0.012932728997
   48          0.160620000000         0.010385513030
   49          0.067693000000        -0.003567142011
 P 49
    1      97285.000000000000        -0.000005082650
    2      23066.000000000000        -0.000045350670
    3       7508.300000000000        -0.000265302765
    4       2884.200000000000        -0.001210342269
    5       1235.000000000000        -0.004581517134
    6        565.950000000000        -0.015366507295
    7        273.290000000000        -0.042588672550
    8        137.780000000000        -0.099823713797
    9         71.579000000000        -0.180757103837
   10         38.347000000000        -0.231555819524
   11         20.853000000000        -0.185114984360
   12         11.399000000000        -0.072907665335
   13          5.944400000000        -0.008664355655
   14          3.115000000000         0.000268025861
   15          1.606000000000        -0.000124067608
   16      97285.000000000000         0.000021191625
   17      23066.000000000000         0.000188816689
   18       7508.300000000000         0.001107823718
   19       2884.200000000000         0.005057782032
   20       1235.000000000000         0.019292153066
   21        565.950000000000         0.065278474809
   22        273.290000000000         0.185292207159
   23        137.780000000000         0.448558276893
   24         71.579000000000         0.864072273058
   25         38.347000000000         1.133939944431
   26         20.853000000000         0.770610037408
   27         11.399000000000        -0.982381196193
   28          5.944400000000        -2.883908466658
   29          3.115000000000        -3.022711372902
   30          1.606000000000        -1.383918174970
   31      97285.000000000000        -0.000019080199
   32      23066.000000000000        -0.000170627780
   33       7508.300000000000        -0.000997770484
   34       2884.200000000000        -0.004572132910
   35       1235.000000000000        -0.017396337240
   36        565.950000000000        -0.059127196445
   37        273.290000000000        -0.167766515390
   38        137.780000000000        -0.409497492031
   39         71.579000000000        -0.791132078820
   40         38.347000000000        -1.053006665978
   41         20.853000000000        -0.674516410340
   42         11.399000000000         1.131270674935
   43          5.944400000000         3.486688375613
   44          3.115000000000         3.825220379169
   45          1.606000000000         0.773306551853
   46          0.782220000000         0.220893481297
   47          0.365320000000        -0.037206294168
   48          0.160620000000        -0.003736444987
   49          0.067693000000         0.003528023131
 P 49
    1      97285.000000000000        -0.000016000318
    2      23066.000000000000        -0.000142765117
    3       7508.300000000000        -0.000835180163
    4       2884.200000000000        -0.003810189668
    5       1235.000000000000        -0.014422737849
    6        565.950000000000        -0.048374173860
    7        273.290000000000        -0.134070274449
    8        137.780000000000        -0.314247707287
    9         71.579000000000        -0.569028172727
   10         38.347000000000        -0.728943881436
   11         20.853000000000        -0.582746896575
   12         11.399000000000        -0.229515270509
   13          5.944400000000        -0.027275622156
   14          3.115000000000         0.000843752543
   15          1.606000000000        -0.000390568132
   16      97285.000000000000         0.000068636730
   17      23066.000000000000         0.000611551033
   18       7508.300000000000         0.003588087178
   19       2884.200000000000         0.016381453617
   20       1235.000000000000         0.062484604645
   21        565.950000000000         0.211427914563
   22        273.290000000000         0.600135727111
   23        137.780000000000         1.452817966727
   24         71.579000000000         2.798610097095
   25         38.347000000000         3.672674007641
   26         20.853000000000         2.495898895101
   27         11.399000000000        -3.181796269349
   28          5.944400000000        -9.340579029723
   29          3.115000000000        -9.790142367226
   30          1.606000000000        -4.482318781411
   31      97285.000000000000        -0.000054034945
   32      23066.000000000000        -0.000483216272
   33       7508.300000000000        -0.002825676646
   34       2884.200000000000        -0.012948237493
   35       1235.000000000000        -0.049266263801
   36        565.950000000000        -0.167447665425
   37        273.290000000000        -0.475113197100
   38        137.780000000000        -1.159693054310
   39         71.579000000000        -2.240478622467
   40         38.347000000000        -2.982104995613
   41         20.853000000000        -1.910224143768
   42         11.399000000000         3.203747934477
   43          5.944400000000         9.874268757271
   44          3.115000000000        10.832988214230
   45          1.606000000000         2.189996897389
   46          0.782220000000         0.497962320403
   47          0.365320000000        -0.112835731044
   48          0.160620000000         0.014854262041
   49          0.067693000000        -0.000256107035
 P 49
    1      97285.000000000000        -0.000024561689
    2      23066.000000000000        -0.000219155165
    3       7508.300000000000        -0.001282064207
    4       2884.200000000000        -0.005848926988
    5       1235.000000000000        -0.022139984619
    6        565.950000000000        -0.074257985993
    7        273.290000000000        -0.205807929475
    8        137.780000000000        -0.482393806120
    9         71.579000000000        -0.873500934664
   10         38.347000000000        -1.118983544700
   11         20.853000000000        -0.894560204975
   12         11.399000000000        -0.352323158884
   13          5.944400000000        -0.041870126276
   14          3.115000000000         0.001295223453
   15          1.606000000000        -0.000599551383
   16      97285.000000000000         0.000102875754
   17      23066.000000000000         0.000916619622
   18       7508.300000000000         0.005377983084
   19       2884.200000000000         0.024553244132
   20       1235.000000000000         0.093654677306
   21        565.950000000000         0.316897469777
   22        273.290000000000         0.899509858184
   23        137.780000000000         2.177547551632
   24         71.579000000000         4.194680066239
   25         38.347000000000         5.504765549741
   26         20.853000000000         3.740963185080
   27         11.399000000000        -4.769016376995
   28          5.944400000000       -14.000071215271
   29          3.115000000000       -14.673896544599
   30          1.606000000000        -6.718296793979
   31      97285.000000000000        -0.000079413268
   32      23066.000000000000        -0.000710166045
   33       7508.300000000000        -0.004152798078
   34       2884.200000000000        -0.019029571502
   35       1235.000000000000        -0.072404903766
   36        565.950000000000        -0.246091973810
   37        273.290000000000        -0.698257238528
   38        137.780000000000        -1.704360296842
   39         71.579000000000        -3.292753022764
   40         38.347000000000        -4.382695349127
   41         20.853000000000        -2.807389573137
   42         11.399000000000         4.708436219671
   43          5.944400000000        14.511867228748
   44          3.115000000000        15.920863662916
   45          1.606000000000         3.218561798095
   46          0.782220000000         2.775883694828
   47          0.365320000000        -0.156015789177
   48          0.160620000000         0.030676198312
   49          0.067693000000        -0.004104099237
 P 49
    1      97285.000000000000        -0.000028898254
    2      23066.000000000000        -0.000257848789
    3       7508.300000000000        -0.001508423053
    4       2884.200000000000        -0.006881602545
    5       1235.000000000000        -0.026048978696
    6        565.950000000000        -0.087368836449
    7        273.290000000000        -0.242144990733
    8        137.780000000000        -0.567564349976
    9         71.579000000000        -1.027724618136
   10         38.347000000000        -1.316549176470
   11         20.853000000000        -1.052502073637
   12         11.399000000000        -0.414528673703
   13          5.944400000000        -0.049262637085
   14          3.115000000000         0.001523905672
   15          1.606000000000        -0.000705407049
   16      97285.000000000000         0.000120050245
   17      23066.000000000000         0.001069643775
   18       7508.300000000000         0.006275805136
   19       2884.200000000000         0.028652261126
   20       1235.000000000000         0.109289764538
   21        565.950000000000         0.369801603623
   22        273.290000000000         1.049677639474
   23        137.780000000000         2.541076068310
   24         71.579000000000         4.894956770311
   25         38.347000000000         6.423753175731
   26         20.853000000000         4.365494574348
   27         11.399000000000        -5.565175086934
   28          5.944400000000       -16.337299221360
   29          3.115000000000       -17.123615652105
   30          1.606000000000        -7.839876190160
   31      97285.000000000000        -0.000092158313
   32      23066.000000000000        -0.000824140681
   33       7508.300000000000        -0.004819281155
   34       2884.200000000000        -0.022083629786
   35       1235.000000000000        -0.084025175727
   36        565.950000000000        -0.285587305126
   37        273.290000000000        -0.810320629105
   38        137.780000000000        -1.977893291690
   39         71.579000000000        -3.821207362658
   40         38.347000000000        -5.086074667791
   41         20.853000000000        -3.257947872967
   42         11.399000000000         5.464093730938
   43          5.944400000000        16.840878595219
   44          3.115000000000        18.476005041381
   45          1.606000000000         3.735109179166
   46          0.782220000000         5.258647059703
   47          0.365320000000        -3.300400352121
   48          0.160620000000         0.373755768647
   49          0.067693000000        -0.076664802966
 P 49
    1      97285.000000000000        -0.000021490781
    2      23066.000000000000        -0.000191754554
    3       7508.300000000000        -0.001121769821
    4       2884.200000000000        -0.005117645239
    5       1235.000000000000        -0.019371858653
    6        565.950000000000        -0.064973631793
[...]
  BAS[ATNO][ 13].a[ 38] =        71.579000000000;     BAS[ATNO][ 13].d[ 38] =        -2.827286222986;
  BAS[ATNO][ 13].a[ 39] =        38.347000000000;     BAS[ATNO][ 13].d[ 39] =        -3.763153232104;
  BAS[ATNO][ 13].a[ 40] =        20.853000000000;     BAS[ATNO][ 13].d[ 40] =        -2.410534227077;
  BAS[ATNO][ 13].a[ 41] =        11.399000000000;     BAS[ATNO][ 13].d[ 41] =         4.042847053409;
  BAS[ATNO][ 13].a[ 42] =         5.944400000000;     BAS[ATNO][ 13].d[ 42] =        12.460455431062;
  BAS[ATNO][ 13].a[ 43] =         3.115000000000;     BAS[ATNO][ 13].d[ 43] =        13.670274746091;
  BAS[ATNO][ 13].a[ 44] =         1.606000000000;     BAS[ATNO][ 13].d[ 44] =         2.763582742670;
  BAS[ATNO][ 13].a[ 45] =         0.782220000000;     BAS[ATNO][ 13].d[ 45] =         4.779920849304;
  BAS[ATNO][ 13].a[ 46] =         0.365320000000;     BAS[ATNO][ 13].d[ 46] =        -5.117383030286;
  BAS[ATNO][ 13].a[ 47] =         0.160620000000;     BAS[ATNO][ 13].d[ 47] =         3.277157589296;
  BAS[ATNO][ 13].a[ 48] =         0.067693000000;     BAS[ATNO][ 13].d[ 48] =        -0.461438723387;

  // Basis function  15 L = p
  InitBFNGauss(BAS[ATNO][ 14]);
  BAS[ATNO][ 14].l  = 1;
  BAS[ATNO][ 14].ng = 49;
  BAS[ATNO][ 14].a[  0] =     97285.000000000000;     BAS[ATNO][ 14].d[  0] =        -0.000009663767;
  BAS[ATNO][ 14].a[  1] =     23066.000000000000;     BAS[ATNO][ 14].d[  1] =        -0.000086226334;
  BAS[ATNO][ 14].a[  2] =      7508.300000000000;     BAS[ATNO][ 14].d[  2] =        -0.000504426607;
  BAS[ATNO][ 14].a[  3] =      2884.200000000000;     BAS[ATNO][ 14].d[  3] =        -0.002301253227;
  BAS[ATNO][ 14].a[  4] =      1235.000000000000;     BAS[ATNO][ 14].d[  4] =        -0.008710950087;
  BAS[ATNO][ 14].a[  5] =       565.950000000000;     BAS[ATNO][ 14].d[  5] =        -0.029216714497;
  BAS[ATNO][ 14].a[  6] =       273.290000000000;     BAS[ATNO][ 14].d[  6] =        -0.080974880161;
  BAS[ATNO][ 14].a[  7] =       137.780000000000;     BAS[ATNO][ 14].d[  7] =        -0.189797257766;
  BAS[ATNO][ 14].a[  8] =        71.579000000000;     BAS[ATNO][ 14].d[  8] =        -0.343677882990;
  BAS[ATNO][ 14].a[  9] =        38.347000000000;     BAS[ATNO][ 14].d[  9] =        -0.440262718083;
  BAS[ATNO][ 14].a[ 10] =        20.853000000000;     BAS[ATNO][ 14].d[ 10] =        -0.351963627344;
  BAS[ATNO][ 14].a[ 11] =        11.399000000000;     BAS[ATNO][ 14].d[ 11] =        -0.138621119416;
  BAS[ATNO][ 14].a[ 12] =         5.944400000000;     BAS[ATNO][ 14].d[ 12] =        -0.016473750385;
  BAS[ATNO][ 14].a[ 13] =         3.115000000000;     BAS[ATNO][ 14].d[ 13] =         0.000509604096;
  BAS[ATNO][ 14].a[ 14] =         1.606000000000;     BAS[ATNO][ 14].d[ 14] =        -0.000235892764;
  BAS[ATNO][ 14].a[ 15] =     97285.000000000000;     BAS[ATNO][ 14].d[ 15] =         0.000039973384;
  BAS[ATNO][ 14].a[ 16] =     23066.000000000000;     BAS[ATNO][ 14].d[ 16] =         0.000356161548;
  BAS[ATNO][ 14].a[ 17] =      7508.300000000000;     BAS[ATNO][ 14].d[ 17] =         0.002089668097;
  BAS[ATNO][ 14].a[ 18] =      2884.200000000000;     BAS[ATNO][ 14].d[ 18] =         0.009540403928;
  BAS[ATNO][ 14].a[ 19] =      1235.000000000000;     BAS[ATNO][ 14].d[ 19] =         0.036390443823;
  BAS[ATNO][ 14].a[ 20] =       565.950000000000;     BAS[ATNO][ 14].d[ 20] =         0.123133621333;
  BAS[ATNO][ 14].a[ 21] =       273.290000000000;     BAS[ATNO][ 14].d[ 21] =         0.349513381537;
  BAS[ATNO][ 14].a[ 22] =       137.780000000000;     BAS[ATNO][ 14].d[ 22] =         0.846107467645;
  BAS[ATNO][ 14].a[ 23] =        71.579000000000;     BAS[ATNO][ 14].d[ 23] =         1.629884098635;
  BAS[ATNO][ 14].a[ 24] =        38.347000000000;     BAS[ATNO][ 14].d[ 24] =         2.138930668026;
  BAS[ATNO][ 14].a[ 25] =        20.853000000000;     BAS[ATNO][ 14].d[ 25] =         1.453587952515;
  BAS[ATNO][ 14].a[ 26] =        11.399000000000;     BAS[ATNO][ 14].d[ 26] =        -1.853048107662;
  BAS[ATNO][ 14].a[ 27] =         5.944400000000;     BAS[ATNO][ 14].d[ 27] =        -5.439865041718;
  BAS[ATNO][ 14].a[ 28] =         3.115000000000;     BAS[ATNO][ 14].d[ 28] =        -5.701686485114;
  BAS[ATNO][ 14].a[ 29] =         1.606000000000;     BAS[ATNO][ 14].d[ 29] =        -2.610460140345;
  BAS[ATNO][ 14].a[ 30] =     97285.000000000000;     BAS[ATNO][ 14].d[ 30] =        -0.000030601333;
  BAS[ATNO][ 14].a[ 31] =     23066.000000000000;     BAS[ATNO][ 14].d[ 31] =        -0.000273657387;
  BAS[ATNO][ 14].a[ 32] =      7508.300000000000;     BAS[ATNO][ 14].d[ 32] =        -0.001600250928;
  BAS[ATNO][ 14].a[ 33] =      2884.200000000000;     BAS[ATNO][ 14].d[ 33] =        -0.007332908770;
  BAS[ATNO][ 14].a[ 34] =      1235.000000000000;     BAS[ATNO][ 14].d[ 34] =        -0.027900709892;
  BAS[ATNO][ 14].a[ 35] =       565.950000000000;     BAS[ATNO][ 14].d[ 35] =        -0.094829775482;
  BAS[ATNO][ 14].a[ 36] =       273.290000000000;     BAS[ATNO][ 14].d[ 36] =        -0.269068414272;
  BAS[ATNO][ 14].a[ 37] =       137.780000000000;     BAS[ATNO][ 14].d[ 37] =        -0.656763005260;
  BAS[ATNO][ 14].a[ 38] =        71.579000000000;     BAS[ATNO][ 14].d[ 38] =        -1.268838739565;
  BAS[ATNO][ 14].a[ 39] =        38.347000000000;     BAS[ATNO][ 14].d[ 39] =        -1.688840190636;
  BAS[ATNO][ 14].a[ 40] =        20.853000000000;     BAS[ATNO][ 14].d[ 40] =        -1.081807418540;
  BAS[ATNO][ 14].a[ 41] =        11.399000000000;     BAS[ATNO][ 14].d[ 41] =         1.814362096697;
  BAS[ATNO][ 14].a[ 42] =         5.944400000000;     BAS[ATNO][ 14].d[ 42] =         5.592043859942;
  BAS[ATNO][ 14].a[ 43] =         3.115000000000;     BAS[ATNO][ 14].d[ 43] =         6.134990521055;
  BAS[ATNO][ 14].a[ 44] =         1.606000000000;     BAS[ATNO][ 14].d[ 44] =         1.240249683737;
  BAS[ATNO][ 14].a[ 45] =         0.782220000000;     BAS[ATNO][ 14].d[ 45] =         2.344323898109;
  BAS[ATNO][ 14].a[ 46] =         0.365320000000;     BAS[ATNO][ 14].d[ 46] =        -3.155184052475;
  BAS[ATNO][ 14].a[ 47] =         0.160620000000;     BAS[ATNO][ 14].d[ 47] =         3.456626669086;
  BAS[ATNO][ 14].a[ 48] =         0.067693000000;     BAS[ATNO][ 14].d[ 48] =        -2.281623453561;

  // Basis function  16 L = d
  InitBFNGauss(BAS[ATNO][ 15]);
  BAS[ATNO][ 15].l  = 2;
  BAS[ATNO][ 15].ng = 13;
  BAS[ATNO][ 15].a[  0] =      2219.700000000000;     BAS[ATNO][ 15].d[  0] =        -0.000066118458;
  BAS[ATNO][ 15].a[  1] =       670.130000000000;     BAS[ATNO][ 15].d[  1] =        -0.000670917009;
  BAS[ATNO][ 15].a[  2] =       263.090000000000;     BAS[ATNO][ 15].d[  2] =        -0.003994433505;
  BAS[ATNO][ 15].a[  3] =       116.690000000000;     BAS[ATNO][ 15].d[  3] =        -0.018279100945;
  BAS[ATNO][ 15].a[  4] =        54.856000000000;     BAS[ATNO][ 15].d[  4] =        -0.064407995227;
  BAS[ATNO][ 15].a[  5] =        27.847000000000;     BAS[ATNO][ 15].d[  5] =        -0.153725367687;
  BAS[ATNO][ 15].a[  6] =        14.745000000000;     BAS[ATNO][ 15].d[  6] =        -0.299702405121;
  BAS[ATNO][ 15].a[  7] =         7.882700000000;     BAS[ATNO][ 15].d[  7] =        -0.428847511545;
  BAS[ATNO][ 15].a[  8] =         4.170300000000;     BAS[ATNO][ 15].d[  8] =        -0.470165670685;
  BAS[ATNO][ 15].a[  9] =         2.168200000000;     BAS[ATNO][ 15].d[  9] =         0.638177526202;
  BAS[ATNO][ 15].a[ 10] =         1.103200000000;     BAS[ATNO][ 15].d[ 10] =        -0.470978135368;
  BAS[ATNO][ 15].a[ 11] =         0.523790000000;     BAS[ATNO][ 15].d[ 11] =         0.216120930687;
  BAS[ATNO][ 15].a[ 12] =         0.218000000000;     BAS[ATNO][ 15].d[ 12] =        -0.059515802162;

  // Basis function  17 L = d
  InitBFNGauss(BAS[ATNO][ 16]);
  BAS[ATNO][ 16].l  = 2;
  BAS[ATNO][ 16].ng = 13;
  BAS[ATNO][ 16].a[  0] =      2219.700000000000;     BAS[ATNO][ 16].d[  0] =        -0.000029933790;
  BAS[ATNO][ 16].a[  1] =       670.130000000000;     BAS[ATNO][ 16].d[  1] =        -0.000303744061;
  BAS[ATNO][ 16].a[  2] =       263.090000000000;     BAS[ATNO][ 16].d[  2] =        -0.001808398709;
  BAS[ATNO][ 16].a[  3] =       116.690000000000;     BAS[ATNO][ 16].d[  3] =        -0.008275492010;
  BAS[ATNO][ 16].a[  4] =        54.856000000000;     BAS[ATNO][ 16].d[  4] =        -0.029159412790;
  BAS[ATNO][ 16].a[  5] =        27.847000000000;     BAS[ATNO][ 16].d[  5] =        -0.069596040629;
  BAS[ATNO][ 16].a[  6] =        14.745000000000;     BAS[ATNO][ 16].d[  6] =        -0.135684181976;
  BAS[ATNO][ 16].a[  7] =         7.882700000000;     BAS[ATNO][ 16].d[  7] =        -0.194152008132;
  BAS[ATNO][ 16].a[  8] =         4.170300000000;     BAS[ATNO][ 16].d[  8] =        -0.212857966202;
  BAS[ATNO][ 16].a[  9] =         2.168200000000;     BAS[ATNO][ 16].d[  9] =         1.791796079695;
  BAS[ATNO][ 16].a[ 10] =         1.103200000000;     BAS[ATNO][ 16].d[ 10] =        -0.873629363496;
  BAS[ATNO][ 16].a[ 11] =         0.523790000000;     BAS[ATNO][ 16].d[ 11] =         0.386172011921;
  BAS[ATNO][ 16].a[ 12] =         0.218000000000;     BAS[ATNO][ 16].d[ 12] =        -0.103018653123;

  // Basis function  18 L = d
  InitBFNGauss(BAS[ATNO][ 17]);
  BAS[ATNO][ 17].l  = 2;
  BAS[ATNO][ 17].ng = 13;
  BAS[ATNO][ 17].a[  0] =      2219.700000000000;     BAS[ATNO][ 17].d[  0] =         0.000015825268;
  BAS[ATNO][ 17].a[  1] =       670.130000000000;     BAS[ATNO][ 17].d[  1] =         0.000160582109;
  BAS[ATNO][ 17].a[  2] =       263.090000000000;     BAS[ATNO][ 17].d[  2] =         0.000956056485;
  BAS[ATNO][ 17].a[  3] =       116.690000000000;     BAS[ATNO][ 17].d[  3] =         0.004375051673;
  BAS[ATNO][ 17].a[  4] =        54.856000000000;     BAS[ATNO][ 17].d[  4] =         0.015415873469;
  BAS[ATNO][ 17].a[  5] =        27.847000000000;     BAS[ATNO][ 17].d[  5] =         0.036793736693;
  BAS[ATNO][ 17].a[  6] =        14.745000000000;     BAS[ATNO][ 17].d[  6] =         0.071732932217;
  BAS[ATNO][ 17].a[  7] =         7.882700000000;     BAS[ATNO][ 17].d[  7] =         0.102643452142;
  BAS[ATNO][ 17].a[  8] =         4.170300000000;     BAS[ATNO][ 17].d[  8] =         0.112532837941;
  BAS[ATNO][ 17].a[  9] =         2.168200000000;     BAS[ATNO][ 17].d[  9] =        -1.742870967159;
  BAS[ATNO][ 17].a[ 10] =         1.103200000000;     BAS[ATNO][ 17].d[ 10] =         2.368534326425;
  BAS[ATNO][ 17].a[ 11] =         0.523790000000;     BAS[ATNO][ 17].d[ 11] =        -0.475260637597;
  BAS[ATNO][ 17].a[ 12] =         0.218000000000;     BAS[ATNO][ 17].d[ 12] =         0.125462616811;

  // Basis function  19 L = d
  InitBFNGauss(BAS[ATNO][ 18]);
  BAS[ATNO][ 18].l  = 2;
  BAS[ATNO][ 18].ng = 13;
  BAS[ATNO][ 18].a[  0] =      2219.700000000000;     BAS[ATNO][ 18].d[  0] =         0.000008892280;
  BAS[ATNO][ 18].a[  1] =       670.130000000000;     BAS[ATNO][ 18].d[  1] =         0.000090231720;
  BAS[ATNO][ 18].a[  2] =       263.090000000000;     BAS[ATNO][ 18].d[  2] =         0.000537211907;
  BAS[ATNO][ 18].a[  3] =       116.690000000000;     BAS[ATNO][ 18].d[  3] =         0.002458358778;
  BAS[ATNO][ 18].a[  4] =        54.856000000000;     BAS[ATNO][ 18].d[  4] =         0.008662240058;
  BAS[ATNO][ 18].a[  5] =        27.847000000000;     BAS[ATNO][ 18].d[  5] =         0.020674545655;
  BAS[ATNO][ 18].a[  6] =        14.745000000000;     BAS[ATNO][ 18].d[  6] =         0.040307017318;
  BAS[ATNO][ 18].a[  7] =         7.882700000000;     BAS[ATNO][ 18].d[  7] =         0.057675760286;
  BAS[ATNO][ 18].a[  8] =         4.170300000000;     BAS[ATNO][ 18].d[  8] =         0.063232645141;
  BAS[ATNO][ 18].a[  9] =         2.168200000000;     BAS[ATNO][ 18].d[  9] =        -1.298983680725;
  BAS[ATNO][ 18].a[ 10] =         1.103200000000;     BAS[ATNO][ 18].d[ 10] =         2.756252499897;
  BAS[ATNO][ 18].a[ 11] =         0.523790000000;     BAS[ATNO][ 18].d[ 11] =        -2.336418464682;
  BAS[ATNO][ 18].a[ 12] =         0.218000000000;     BAS[ATNO][ 18].d[ 12] =         0.217076523984;

  // Basis function  20 L = d
  InitBFNGauss(BAS[ATNO][ 19]);
  BAS[ATNO][ 19].l  = 2;
  BAS[ATNO][ 19].ng = 13;
  BAS[ATNO][ 19].a[  0] =      2219.700000000000;     BAS[ATNO][ 19].d[  0] =        -0.000004275741;
  BAS[ATNO][ 19].a[  1] =       670.130000000000;     BAS[ATNO][ 19].d[  1] =        -0.000043386786;
  BAS[ATNO][ 19].a[  2] =       263.090000000000;     BAS[ATNO][ 19].d[  2] =        -0.000258311576;
  BAS[ATNO][ 19].a[  3] =       116.690000000000;     BAS[ATNO][ 19].d[  3] =        -0.001182070840;
  BAS[ATNO][ 19].a[  4] =        54.856000000000;     BAS[ATNO][ 19].d[  4] =        -0.004165128978;
  BAS[ATNO][ 19].a[  5] =        27.847000000000;     BAS[ATNO][ 19].d[  5] =        -0.009941094756;
  BAS[ATNO][ 19].a[  6] =        14.745000000000;     BAS[ATNO][ 19].d[  6] =        -0.019381121365;
  BAS[ATNO][ 19].a[  7] =         7.882700000000;     BAS[ATNO][ 19].d[  7] =        -0.027732662555;
  BAS[ATNO][ 19].a[  8] =         4.170300000000;     BAS[ATNO][ 19].d[  8] =        -0.030404620615;
  BAS[ATNO][ 19].a[  9] =         2.168200000000;     BAS[ATNO][ 19].d[  9] =         0.690345940460;
  BAS[ATNO][ 19].a[ 10] =         1.103200000000;     BAS[ATNO][ 19].d[ 10] =        -1.755542252037;
  BAS[ATNO][ 19].a[ 11] =         0.523790000000;     BAS[ATNO][ 19].d[ 11] =         2.350442505494;
  BAS[ATNO][ 19].a[ 12] =         0.218000000000;     BAS[ATNO][ 19].d[ 12] =        -1.795173370631;

  // Basis function  21 L = f
  InitBFNGauss(BAS[ATNO][ 20]);
  BAS[ATNO][ 20].l  = 3;
  BAS[ATNO][ 20].ng = 4;
  BAS[ATNO][ 20].a[  0] =         8.460000000000;     BAS[ATNO][ 20].d[  0] =         0.821139662225;
  BAS[ATNO][ 20].a[  1] =         2.490000000000;     BAS[ATNO][ 20].d[  1] =         0.321522767175;
  BAS[ATNO][ 20].a[  2] =         0.730000000000;     BAS[ATNO][ 20].d[  2] =        -0.050351165332;
  BAS[ATNO][ 20].a[  3] =         0.293000000000;     BAS[ATNO][ 20].d[  3] =         0.019200878295;

  // Basis function  22 L = f
  InitBFNGauss(BAS[ATNO][ 21]);
  BAS[ATNO][ 21].l  = 3;
  BAS[ATNO][ 21].ng = 4;
  BAS[ATNO][ 21].a[  0] =         8.460000000000;     BAS[ATNO][ 21].d[  0] =        -0.703919907726;
  BAS[ATNO][ 21].a[  1] =         2.490000000000;     BAS[ATNO][ 21].d[  1] =         0.959923898242;
  BAS[ATNO][ 21].a[  2] =         0.730000000000;     BAS[ATNO][ 21].d[  2] =         0.219189913081;
  BAS[ATNO][ 21].a[  3] =         0.293000000000;     BAS[ATNO][ 21].d[  3] =        -0.056667432493;

  // Basis function  23 L = f
  InitBFNGauss(BAS[ATNO][ 22]);
  BAS[ATNO][ 22].l  = 3;
  BAS[ATNO][ 22].ng = 4;
  BAS[ATNO][ 22].a[  0] =         8.460000000000;     BAS[ATNO][ 22].d[  0] =         0.354089402537;
  BAS[ATNO][ 22].a[  1] =         2.490000000000;     BAS[ATNO][ 22].d[  1] =        -0.786376622686;
  BAS[ATNO][ 22].a[  2] =         0.730000000000;     BAS[ATNO][ 22].d[  2] =         1.209298474500;
  BAS[ATNO][ 22].a[  3] =         0.293000000000;     BAS[ATNO][ 22].d[  3] =        -0.122195877058;

  // Basis function  24 L = f
  InitBFNGauss(BAS[ATNO][ 23]);
  BAS[ATNO][ 23].l  = 3;
  BAS[ATNO][ 23].ng = 4;
  BAS[ATNO][ 23].a[  0] =         8.460000000000;     BAS[ATNO][ 23].d[  0] =        -0.119653670961;
  BAS[ATNO][ 23].a[  1] =         2.490000000000;     BAS[ATNO][ 23].d[  1] =         0.319157300530;
  BAS[ATNO][ 23].a[  2] =         0.730000000000;     BAS[ATNO][ 23].d[  2] =        -0.891578027163;
  BAS[ATNO][ 23].a[  3] =         0.293000000000;     BAS[ATNO][ 23].d[  3] =         1.338207043534;

  // Basis function  25 L = g
  InitBFNGauss(BAS[ATNO][ 24]);
  BAS[ATNO][ 24].l  = 4;
  BAS[ATNO][ 24].ng = 2;
  BAS[ATNO][ 24].a[  0] =         2.250000000000;     BAS[ATNO][ 24].d[  0] =         0.994040731262;
  BAS[ATNO][ 24].a[  1] =         0.560000000000;     BAS[ATNO][ 24].d[  1] =         0.019862339163;

  // Basis function  26 L = g
  InitBFNGauss(BAS[ATNO][ 25]);
  BAS[ATNO][ 25].l  = 4;
  BAS[ATNO][ 25].ng = 2;
  BAS[ATNO][ 25].a[  0] =         2.250000000000;     BAS[ATNO][ 25].d[  0] =        -0.323039741597;
  BAS[ATNO][ 25].a[  1] =         0.560000000000;     BAS[ATNO][ 25].d[  1] =         1.045024945894;

  // Basis function  27 L = h
  InitBFNGauss(BAS[ATNO][ 26]);
  BAS[ATNO][ 26].l  = 5;
  BAS[ATNO][ 26].ng = 1;
  BAS[ATNO][ 26].a[  0] =         0.840000000000;     BAS[ATNO][ 26].d[  0] =         1.000000000000;

-------
TIMINGS
-------

Total SCF time: 0 days 0 hours 0 min 11 sec 

Total time                  ....      11.315 sec
Sum of individual times     ....      10.924 sec  ( 96.5%)

Fock matrix formation       ....      10.134 sec  ( 89.6%)
  XC integration            ....       0.066 sec  (  0.6% of F)
    Basis function eval.    ....       0.014 sec  ( 21.5% of XC)
    Density eval.           ....       0.005 sec  (  7.3% of XC)
    XC-Functional eval.     ....       0.002 sec  (  3.4% of XC)
    XC-Potential eval.      ....       0.011 sec  ( 17.3% of XC)
Diagonalization             ....       0.005 sec  (  0.0%)
Density matrix formation    ....       0.002 sec  (  0.0%)
Population analysis         ....       0.002 sec  (  0.0%)
Initial guess               ....       0.080 sec  (  0.7%)
Orbital Transformation      ....       0.000 sec  (  0.0%)
Orbital Orthonormalization  ....       0.000 sec  (  0.0%)
DIIS solution               ....       0.001 sec  (  0.0%)
SOSCF solution              ....       0.002 sec  (  0.0%)
Grid generation             ....       0.699 sec  (  6.2%)

-------------------------   --------------------
FINAL SINGLE POINT ENERGY     -1270.883374656007
-------------------------   --------------------


                            ***************************************
                            *     ORCA property calculations      *
                            ***************************************

                                    ---------------------
                                    Active property flags
                                    ---------------------
   (+) Dipole Moment


------------------------------------------------------------------------------
                       ORCA ELECTRIC PROPERTIES CALCULATION
------------------------------------------------------------------------------

Dipole Moment Calculation                       ... on
Quadrupole Moment Calculation                   ... off
Polarizability Calculation                      ... off
GBWName                                         ... Kr_pc-4_2192.575824_.gbw
Electron density file                           ... Kr_pc-4_2192.575824_.scfp
The origin for moment calculation is the CENTER OF MASS  = ( 0.000000,  0.000000  0.000000)

-------------
DIPOLE MOMENT
-------------
                                X             Y             Z
Electronic contribution:     -0.00000       0.00000       0.00000
Nuclear contribution   :      0.00000       0.00000       0.00000
                        -----------------------------------------
Total Dipole Moment    :     -0.00000       0.00000       0.00000
                        -----------------------------------------
Magnitude (a.u.)       :      0.00000
Magnitude (Debye)      :      0.00000



--------------------
Rotational spectrum 
--------------------
 
Rotational constants in cm-1:     0.000000     0.000000     0.000000 
Rotational constants in MHz :     0.000000     0.000000     0.000000 

 Dipole components along the rotational axes: 
x,y,z [a.u.] :    -0.000000     0.000000     0.000000 
x,y,z [Debye]:    -0.000000     0.000000     0.000000 

 

Timings for individual modules:

Sum of individual times         ...       14.438 sec (=   0.241 min)
GTO integral calculation        ...        2.272 sec (=   0.038 min)  15.7 %
Relativistic integrals          ...        0.540 sec (=   0.009 min)   3.7 %
SCF iterations                  ...       11.626 sec (=   0.194 min)  80.5 %
                             ****ORCA TERMINATED NORMALLY****
TOTAL RUN TIME: 0 days 0 hours 0 minutes 14 seconds 857 msec
