
                                 *****************
                                 * O   R   C   A *
                                 *****************

           --- An Ab Initio, DFT and Semiempirical electronic structure package ---

                  #######################################################
                  #                        -***-                        #
                  #          Department of theory and spectroscopy      #
                  #               Directorship: Frank Neese             #
                  #        Max Planck Institute fuer Kohlenforschung    #
                  #                Kaiser Wilhelm Platz 1               #
                  #                 D-45470 Muelheim/Ruhr               #
                  #                      Germany                        #
                  #                                                     #
                  #                  All rights reserved                #
                  #                        -***-                        #
                  #######################################################


                         Program Version 4.2.1 -  RELEASE  -


 With contributions from (in alphabetic order):
   Daniel Aravena         : Magnetic Suceptibility
   Michael Atanasov       : Ab Initio Ligand Field Theory (pilot matlab implementation)
   Alexander A. Auer      : GIAO ZORA, VPT2
   Ute Becker             : Parallelization
   Giovanni Bistoni       : ED, misc. LED, open-shell LED, HFLD
   Martin Brehm           : Molecular dynamics
   Dmytro Bykov           : SCF Hessian
   Vijay G. Chilkuri      : MRCI spin determinant printing, contributions to CSF-ICE
   Dipayan Datta          : RHF DLPNO-CCSD density
   Achintya Kumar Dutta   : EOM-CC, STEOM-CC
   Dmitry Ganyushin       : Spin-Orbit,Spin-Spin,Magnetic field MRCI
   Miquel Garcia          : C-PCM Hessian, Gaussian charge scheme
   Yang Guo               : DLPNO-NEVPT2, CIM, IAO-localization
   Andreas Hansen         : Spin unrestricted coupled pair/coupled cluster methods
   Benjamin Helmich-Paris : CASSCF linear response (MC-RPA)
   Lee Huntington         : MR-EOM, pCC
   Robert Izsak           : Overlap fitted RIJCOSX, COSX-SCS-MP3, EOM
   Christian Kollmar      : KDIIS, OOCD, Brueckner-CCSD(T), CCSD density
   Simone Kossmann        : Meta GGA functionals, TD-DFT gradient, OOMP2, MP2 Hessian
   Martin Krupicka        : AUTO-CI
   Lucas Lang             : DCDCAS
   Dagmar Lenk            : GEPOL surface, SMD
   Dimitrios Liakos       : Extrapolation schemes; Compound Job, initial MDCI parallelization
   Dimitrios Manganas     : Further ROCIS development; embedding schemes
   Dimitrios Pantazis     : SARC Basis sets
   Taras Petrenko         : DFT Hessian,TD-DFT gradient, ASA, ECA, R-Raman, ABS, FL, XAS/XES, NRVS
   Peter Pinski           : DLPNO-MP2, DLPNO-MP2 Gradient
   Christoph Reimann      : Effective Core Potentials
   Marius Retegan         : Local ZFS, SOC
   Christoph Riplinger    : Optimizer, TS searches, QM/MM, DLPNO-CCSD(T), (RO)-DLPNO pert. Triples
   Tobias Risthaus        : Range-separated hybrids, TD-DFT gradient, RPA, STAB
   Michael Roemelt        : Original ROCIS implementation
   Masaaki Saitow         : Open-shell DLPNO-CCSD energy and density
   Barbara Sandhoefer     : DKH picture change effects
   Avijit Sen             : IP-ROCIS
   Kantharuban Sivalingam : CASSCF convergence, NEVPT2, FIC-MRCI
   Bernardo de Souza      : ESD, SOC TD-DFT
   Georgi Stoychev        : AutoAux, RI-MP2 NMR
   Willem Van den Heuvel  : Paramagnetic NMR
   Boris Wezisla          : Elementary symmetry handling
   Frank Wennmohs         : Technical directorship


 We gratefully acknowledge several colleagues who have allowed us to
 interface, adapt or use parts of their codes:
   Stefan Grimme, W. Hujo, H. Kruse,             : VdW corrections, initial TS optimization,
                  C. Bannwarth                     DFT functionals, gCP, sTDA/sTD-DF
   Ed Valeev, F. Pavosevic, A. Kumar             : LibInt (2-el integral package), F12 methods
   Garnet Chan, S. Sharma, J. Yang, R. Olivares  : DMRG
   Ulf Ekstrom                                   : XCFun DFT Library
   Mihaly Kallay                                 : mrcc  (arbitrary order and MRCC methods)
   Andreas Klamt, Michael Diedenhofen            : otool_cosmo (COSMO solvation model)
   Jiri Pittner, Ondrej Demel                    : Mk-CCSD
   Frank Weinhold                                : gennbo (NPA and NBO analysis)
   Christopher J. Cramer and Donald G. Truhlar   : smd solvation model
   Lars Goerigk                                  : TD-DFT with DH, B97 family of functionals
   V. Asgeirsson, H. Jonsson                     : NEB implementation
   FAccTs GmbH                                   : IRC, NEB, NEB-TS, Multilevel, MM, QM/MM, CI optimization
   S Lehtola, MJT Oliveira, MAL Marques          : LibXC Library


 Your calculation uses the libint2 library for the computation of 2-el integrals
 For citations please refer to: http://libint.valeyev.net

 Your ORCA version has been built with support for libXC version: 4.2.3
 For citations please refer to: https://tddft.org/programs/libxc/

 This ORCA versions uses:
   CBLAS   interface :  Fast vector & matrix operations
   LAPACKE interface :  Fast linear algebra routines
   SCALAPACK package :  Parallel linear algebra routines


----- Orbital basis set information -----
Your calculation utilizes the basis: pc-4
   H, C-F              : F. Jensen, J. Chem. Phys. 115, 9113 (2001).
                         F. Jensen, J. Chem. Phys. 116, 7372 (2002).
                         F. Jensen, J. Chem. Phys. 117, 9234 (2002).
   Si-Cl               : F. Jensen, T. Helgaker, J. Chem. Phys. 121, 3463 (2004).
   He-B, Ne-Mg, Al, Ar : F. Jensen, J. Phys. Chem. A 111, 11198 (2007).
   K, Ca, Ga-Kr        : F. Jensen, J. Chem. Phys. 136, 094110 (2012).
   Sc-Zn               : F. Jensen, J. Chem. Phys. 138, 014107 (2013).

================================================================================
                                        WARNINGS
                       Please study these warnings very carefully!
================================================================================


INFO   : the flag for use of LIBINT has been found!

================================================================================
                                       INPUT FILE
================================================================================
NAME = Kr_pc-4_137.035989_.inp
|  1> ! LDA pc-4 nori grid5 finalgrid6 verytightscf
|  2> %Pal NProcs 18 End
|  3> 
|  4> % REL
|  5>   Method ZORA
|  6>   ModelPot 1, 0, 0, 0
|  7>   velit 137.035989
|  8> END
|  9> 
| 10> *xyz 34 1
| 11> Kr 0.0 0.0 0.0
| 12> **                         ****END OF INPUT****
================================================================================

                       ****************************
                       * Single Point Calculation *
                       ****************************

---------------------------------
CARTESIAN COORDINATES (ANGSTROEM)
---------------------------------
  Kr     0.000000    0.000000    0.000000

----------------------------
CARTESIAN COORDINATES (A.U.)
----------------------------
  NO LB      ZA    FRAG     MASS         X           Y           Z
   0 Kr   36.0000    0    83.800    0.000000    0.000000    0.000000

--------------------------------
INTERNAL COORDINATES (ANGSTROEM)
--------------------------------
 Kr     0   0   0     0.000000000000     0.00000000     0.00000000

---------------------------
INTERNAL COORDINATES (A.U.)
---------------------------
 Kr     0   0   0     0.000000000000     0.00000000     0.00000000

---------------------
BASIS SET INFORMATION
---------------------
There are 1 groups of distinct atoms

 Group   1 Type Kr  : 84s49p13d4f2g1h contracted to 8s7p5d4f2g1h pattern {202020201111/1515151111/91111/1111/11/1}

Atom   0Kr   basis set group =>   1


           ************************************************************
           *        Program running with 18 parallel MPI-processes    *
           *              working on a common directory               *
           ************************************************************
------------------------------------------------------------------------------
                           ORCA GTO INTEGRAL CALCULATION
------------------------------------------------------------------------------

                         BASIS SET STATISTICS AND STARTUP INFO

 # of primitive gaussian shells          ...  153
 # of primitive gaussian functions       ...  353
 # of contracted shells                  ...   27
 # of contracted basis functions         ...  111
 Highest angular momentum                ...    5
 Maximum contraction depth               ...   20
 Integral package used                   ... LIBINT
 Integral threshhold            Thresh   ...  1.000e-12
 Primitive cut-off              TCut     ...  1.000e-14


------------------------------ INTEGRAL EVALUATION ----------------------------


 * One electron integrals 
 Pre-screening matrix                    ... done
 Shell pair data                         ... done (   0.000 sec)



           ************************************************************
           *        Program running with 18 parallel MPI-processes    *
           *              working on a common directory               *
           ************************************************************
------------------------------------------------------------------------------
                          ORCA RELATIVISTIC HAMILTONIAN
------------------------------------------------------------------------------

Relativistic Method            ... ZORA(MP)
Treatment of potential         ... Van Wuellen
Nucleus model                  ... Point Nucleus
Speed of light used            ... 137.03598900000000


            *************************************************
            *         ZERO ORDER REGULAR APPROXIMATION      *
            *                     ZORA(MP)                  *
            *            Programmed by FN according to      *
            *                   C. van Wuellen              *
            *       J. Chem. Phys. (1998) vol 109, 392-399  *
            *************************************************

Terms included in model potential: +V(e,N)
Basis function cutoff value   ... 1.000000e-12
Loading the fitted atomic densities  (DKH4)  ... done
Calculating the cutoffs                      ... done
Number of fit functions                      ... 27
Setting up the integration grid ... done


           ************************************************************
           *        Program running with 18 parallel MPI-processes    *
           *              working on a common directory               *
           ************************************************************
-------------------------------------------------------------------------------
                                 ORCA SCF
-------------------------------------------------------------------------------

------------
SCF SETTINGS
------------
Hamiltonian:
 Density Functional     Method          .... DFT(GTOs)
 Exchange Functional    Exchange        .... Slater
   X-Alpha parameter    XAlpha          ....  0.666667
 Correlation Functional Correlation     .... VWN-5
 Gradients option       PostSCFGGA      .... off
   Density functional embedding theory  .... OFF

Relativistic Settings:
 Scalar relativistic method             .... ZORA
 Speed of light used       Velit        ....       137.035989
Orbital energies will be scaled


General Settings:
 Integral files         IntName         .... Kr_pc-4_137.035989_
 Hartree-Fock type      HFTyp           .... RHF
 Total Charge           Charge          ....   34
 Multiplicity           Mult            ....    1
 Number of Electrons    NEL             ....    2
 Basis Dimension        Dim             ....  111
 Nuclear Repulsion      ENuc            ....      0.0000000000 Eh

Convergence Acceleration:
 DIIS                   CNVDIIS         .... on
   Start iteration      DIISMaxIt       ....    12
   Startup error        DIISStart       ....  0.200000
   # of expansion vecs  DIISMaxEq       ....     5
   Bias factor          DIISBfac        ....   1.050
   Max. coefficient     DIISMaxC        ....  10.000
 Newton-Raphson         CNVNR           .... off
 SOSCF                  CNVSOSCF        .... on
   Start iteration      SOSCFMaxIt      ....   150
   Startup grad/error   SOSCFStart      ....  0.003300
 Level Shifting         CNVShift        .... on
   Level shift para.    LevelShift      ....    0.2500
   Turn off err/grad.   ShiftErr        ....    0.0010
 Zerner damping         CNVZerner       .... off
 Static damping         CNVDamp         .... on
   Fraction old density DampFac         ....    0.7000
   Max. Damping (<1)    DampMax         ....    0.9800
   Min. Damping (>=0)   DampMin         ....    0.0000
   Turn off err/grad.   DampErr         ....    0.1000
 Fernandez-Rico         CNVRico         .... off

SCF Procedure:
 Maximum # iterations   MaxIter         ....   125
 SCF integral mode      SCFMode         .... Direct
   Integral package                     .... LIBINT
 Reset frequency        DirectResetFreq ....    20
 Integral Threshold     Thresh          ....  1.000e-12 Eh
 Primitive CutOff       TCut            ....  1.000e-14 Eh

Convergence Tolerance:
 Convergence Check Mode ConvCheckMode   .... Total+1el-Energy
 Convergence forced     ConvForced      .... 0
 Energy Change          TolE            ....  1.000e-09 Eh
 1-El. energy change                    ....  1.000e-06 Eh
 Orbital Gradient       TolG            ....  2.000e-06
 Orbital Rotation angle TolX            ....  2.000e-06
 DIIS Error             TolErr          ....  1.000e-08


Diagonalization of the overlap matrix:
Smallest eigenvalue                        ... 1.976e-05
Time for diagonalization                   ...    0.004 sec
Threshold for overlap eigenvalues          ... 1.000e-08
Number of eigenvalues below threshold      ... 0
Time for construction of square roots      ...    0.002 sec
Total time needed                          ...    0.006 sec

-------------------
DFT GRID GENERATION
-------------------

General Integration Accuracy     IntAcc      ...  5.010
Radial Grid Type                 RadialGrid  ... Gauss-Chebyshev
Angular Grid (max. acc.)         AngularGrid ... Lebedev-434
Angular grid pruning method      GridPruning ... 3 (G Style)
Weight generation scheme         WeightScheme... Becke
Basis function cutoff            BFCut       ...    1.0000e-12
Integration weight cutoff        WCut        ...    1.0000e-14
Grids for H and He will be reduced by one unit

# of grid points (after initial pruning)     ...  16106 (   0.0 sec)
# of grid points (after weights+screening)   ...  16106 (   0.0 sec)
Grid point division into batches done        ...    0.2 sec
Reduced shell lists constructed in    0.2 sec

Total number of grid points                  ...    16106
Total number of batches                      ...      252
Average number of points per batch           ...       63
Average number of grid points per atom       ...    16106
Average number of shells per batch           ...     2.00 ( 7.41%)
Average number of basis functions per batch  ...     4.93 ( 4.44%)
Average number of large shells per batch     ...     0.93 (46.67%)
Average number of large basis fcns per batch ...     2.80 (56.76%)
Maximum spatial batch extension              ...  17.34, 17.34, 17.34 au
Average spatial batch extension              ...   0.86,  0.87,  0.87 au

Time for grid setup =    0.261 sec

------------------------------
INITIAL GUESS: MODEL POTENTIAL
------------------------------
Loading ZORA relativistic densities                ... done
Calculating cut-offs                               ... done
Setting up the integral package                    ... done
Initializing the effective Hamiltonian             ... done
Starting the Coulomb interaction                   ... done (   0.0 sec)
Reading the grid                                   ... done
Mapping shells                                     ... done
Starting the XC term evaluation                    ... done (   0.0 sec)
  promolecular density results
     # of electrons  =     36.000000565
     EX              =    -91.042004939
     EC              =     -3.295965580
     EX+EC           =    -94.337970520
Transforming the Hamiltonian                       ... done (   0.0 sec)
Diagonalizing the Hamiltonian                      ... done (   0.0 sec)
Back transforming the eigenvectors                 ... done (   0.0 sec)
Now organizing SCF variables                       ... done
                      ------------------
                      INITIAL GUESS DONE (   0.4 sec)
                      ------------------
--------------
SCF ITERATIONS
--------------
ITER       Energy         Delta-E        Max-DP      RMS-DP      [F,P]     Damp
               ***  Starting incremental Fock matrix formation  ***
  0  -1313.0645854212   0.000000000000 0.07037195  0.00102436  5.4606407 0.7000
                      *** Initiating the SOSCF procedure ***
                      *** Re-Reading the Fockian *** 
                      *** Removing any level shift *** 
ITER      Energy       Delta-E        Grad      Rot      Max-DP    RMS-DP
  1  -1313.07617550  -0.0115900787  0.003230  0.003230  0.175679  0.002548
               *** Restarting incremental Fock matrix formation ***
  2  -1313.10312486  -0.0269493646  0.007317  0.000015  0.026872  0.000430
  3  -1313.10312525  -0.0000003898  0.000043  0.000000  0.000155  0.000002
                 **** Energy Check signals convergence ****
              ***Rediagonalizing the Fockian in SOSCF/NRSCF***

               *****************************************************
               *                     SUCCESS                       *
               *           SCF CONVERGED AFTER   4 CYCLES          *
               *****************************************************

Setting up the final grid:

General Integration Accuracy     IntAcc      ...  5.340
Radial Grid Type                 RadialGrid  ... Gauss-Chebyshev
Angular Grid (max. acc.)         AngularGrid ... Lebedev-590
Angular grid pruning method      GridPruning ... 3 (G Style)
Weight generation scheme         WeightScheme... Becke
Basis function cutoff            BFCut       ...    1.0000e-12
Integration weight cutoff        WCut        ...    1.0000e-14
Grids for H and He will be reduced by one unit

# of grid points (after initial pruning)     ...  24180 (   0.0 sec)
# of grid points (after weights+screening)   ...  24180 (   0.0 sec)
Grid point division into batches done        ...    0.4 sec
Reduced shell lists constructed in    0.4 sec

Total number of grid points                  ...    24180
Total number of batches                      ...      378
Average number of points per batch           ...       63
Average number of grid points per atom       ...    24180
Average number of shells per batch           ...     1.36 ( 5.05%)
Average number of basis functions per batch  ...     4.09 ( 3.69%)
Average number of large shells per batch     ...     0.95 (70.00%)
Average number of large basis fcns per batch ...     2.86 (70.00%)
Maximum spatial batch extension              ...  17.58, 17.58, 17.58 au
Average spatial batch extension              ...   0.77,  0.77,  0.77 au

Final grid set up in    0.5 sec
Final integration                            ... done (   0.0 sec)
Change in XC energy                          ...    -0.000074475
Integrated number of electrons               ...     1.999998798
Previous integrated no of electrons          ...     1.999995049

----------------
TOTAL SCF ENERGY
----------------

Total Energy       :        -1313.10319973 Eh          -35731.35461 eV

Components:
Nuclear Repulsion  :            0.00000000 Eh               0.00000 eV
Electronic Energy  :        -1313.10319973 Eh          -35731.35461 eV
One Electron Energy:        -1338.70205070 Eh          -36427.93476 eV
Two Electron Energy:           25.59885097 Eh             696.58015 eV

Virial components:
Potential Energy   :        -2591.97948761 Eh          -70531.34760 eV
Kinetic Energy     :         1278.87628788 Eh           34799.99299 eV
Virial Ratio       :            2.02676327


DFT components:
N(Alpha)           :        0.999999398954 electrons
N(Beta)            :        0.999999398954 electrons
N(Total)           :        1.999998797907 electrons
E(X)               :      -19.449020908392 Eh       
E(C)               :       -0.279038513572 Eh       
E(XC)              :      -19.728059421964 Eh       
DFET-embed. en.    :        0.000000000000 Eh       

---------------
SCF CONVERGENCE
---------------

  Last Energy change         ...   -1.5461e-11  Tolerance :   1.0000e-09
  Last MAX-Density change    ...    0.0000e+00  Tolerance :   1.0000e-08
  Last RMS-Density change    ...    0.0000e+00  Tolerance :   1.0000e-09
  Last Orbital Gradient      ...    1.6287e-10  Tolerance :   2.0000e-06
  Last Orbital Rotation      ...    0.0000e+00  Tolerance :   2.0000e-06

================================================================================
                                        WARNING
Number of found core electrons (2) does not match given number of chemical core electrons (18)
================================================================================
             **** THE GBW FILE WAS UPDATED (Kr_pc-4_137.035989_.gbw) ****
             **** DENSITY FILE WAS UPDATED (Kr_pc-4_137.035989_.scfp) ****
             **** ENERGY FILE WAS UPDATED (Kr_pc-4_137.035989_.en.tmp) ****
             **** THE GBW FILE WAS UPDATED (Kr_pc-4_137.035989_.gbw) ****
             **** DENSITY FILE WAS UPDATED (Kr_pc-4_137.035989_.scfp) ****
----------------
ORBITAL ENERGIES
----------------

  NO   OCC          E(Eh)            E(eV) 
   0   2.0000    -637.139440    -17337.4456 
   1   0.0000    -151.983605     -4135.6842 
   2   0.0000    -148.051043     -4028.6737 
   3   0.0000    -148.051043     -4028.6737 
   4   0.0000    -148.051043     -4028.6737 
   5   0.0000     -64.460814     -1754.0679 
   6   0.0000     -61.485152     -1673.0960 
   7   0.0000     -61.485152     -1673.0960 
   8   0.0000     -61.485152     -1673.0960 
   9   0.0000     -61.485152     -1673.0960 
  10   0.0000     -61.485152     -1673.0960 
  11   0.0000     -60.544509     -1647.4998 
  12   0.0000     -60.544509     -1647.4998 
  13   0.0000     -60.544509     -1647.4998 
  14   0.0000     -35.187769      -957.5079 
  15   0.0000     -35.187769      -957.5079 
  16   0.0000     -35.187769      -957.5079 
  17   0.0000     -35.187769      -957.5079 
  18   0.0000     -35.187769      -957.5079 
  19   0.0000     -35.187769      -957.5079 
  20   0.0000     -35.187769      -957.5079 
  21   0.0000     -34.145508      -929.1465 
  22   0.0000     -31.717812      -863.0855 
  23   0.0000     -31.717812      -863.0855 
  24   0.0000     -31.717812      -863.0855 
  25   0.0000     -31.717812      -863.0855 
  26   0.0000     -31.717812      -863.0855 
  27   0.0000     -29.453825      -801.4793 
  28   0.0000     -29.453825      -801.4793 
  29   0.0000     -29.453825      -801.4793 
  30   0.0000     -22.271319      -606.0334 
  31   0.0000     -22.271319      -606.0334 
  32   0.0000     -22.271319      -606.0334 
  33   0.0000     -22.271319      -606.0334 
  34   0.0000     -22.271319      -606.0334 
  35   0.0000     -22.271319      -606.0334 
  36   0.0000     -22.271319      -606.0334 
  37   0.0000     -20.754354      -564.7547 
  38   0.0000     -20.754354      -564.7547 
  39   0.0000     -20.754354      -564.7547 
  40   0.0000     -20.754354      -564.7547 
  41   0.0000     -20.754354      -564.7547 
  42   0.0000     -20.754354      -564.7547 
  43   0.0000     -20.754354      -564.7547 
  44   0.0000     -20.754354      -564.7547 
  45   0.0000     -20.754354      -564.7547 
  46   0.0000     -20.722770      -563.8952 
  47   0.0000     -19.507252      -530.8193 
  48   0.0000     -19.507252      -530.8193 
  49   0.0000     -19.507252      -530.8193 
  50   0.0000     -19.507252      -530.8193 
  51   0.0000     -19.507252      -530.8193 
  52   0.0000     -17.376173      -472.8297 
  53   0.0000     -17.376173      -472.8297 
  54   0.0000     -17.376173      -472.8297 
  55   0.0000     -15.200454      -413.6254 
  56   0.0000     -15.200454      -413.6254 
  57   0.0000     -15.200454      -413.6254 
  58   0.0000     -15.200454      -413.6254 
  59   0.0000     -15.200454      -413.6254 
  60   0.0000     -15.200454      -413.6254 
  61   0.0000     -15.200454      -413.6254 
  62   0.0000     -13.482694      -366.8828 
  63   0.0000     -13.213169      -359.5486 
  64   0.0000     -13.213169      -359.5486 
  65   0.0000     -13.213169      -359.5486 
  66   0.0000     -13.213169      -359.5486 
  67   0.0000     -13.213169      -359.5486 
  68   0.0000     -12.931520      -351.8846 
  69   0.0000     -12.931520      -351.8846 
  70   0.0000     -12.931520      -351.8846 
  71   0.0000     -12.931520      -351.8846 
  72   0.0000     -12.931520      -351.8846 
  73   0.0000     -12.931520      -351.8846 
  74   0.0000     -12.931520      -351.8846 
  75   0.0000     -12.931520      -351.8846 
  76   0.0000     -12.931520      -351.8846 
  77   0.0000     -12.931520      -351.8846 
  78   0.0000     -12.931520      -351.8846 
  79   0.0000     -12.667687      -344.7053 
  80   0.0000     -12.667687      -344.7053 
  81   0.0000     -12.667687      -344.7053 
  82   0.0000     -12.667687      -344.7053 
  83   0.0000     -12.667687      -344.7053 
  84   0.0000     -12.667687      -344.7053 
  85   0.0000     -12.667687      -344.7053 
  86   0.0000     -12.667687      -344.7053 
  87   0.0000     -12.667687      -344.7053 
  88   0.0000     -11.777798      -320.4902 
  89   0.0000     -11.777798      -320.4902 
  90   0.0000     -11.777798      -320.4902 
  91   0.0000     -10.079063      -274.2653 
  92   0.0000     -10.079063      -274.2653 
  93   0.0000     -10.079063      -274.2653 
  94   0.0000     -10.079063      -274.2653 
  95   0.0000     -10.079063      -274.2653 
  96   0.0000     -10.079063      -274.2653 
  97   0.0000     -10.079063      -274.2653 
  98   0.0000      -9.146445      -248.8874 
  99   0.0000      -9.146445      -248.8874 
 100   0.0000      -9.146445      -248.8874 
 101   0.0000      -9.146445      -248.8874 
 102   0.0000      -9.146445      -248.8874 
 103   0.0000      -8.831327      -240.3126 
 104   0.0000      -8.471970      -230.5340 
 105   0.0000      -8.471970      -230.5340 
 106   0.0000      -8.471970      -230.5340 
 107   0.0000      -5.822812      -158.4468 
 108   0.0000      -5.822812      -158.4468 
 109   0.0000      -5.822812      -158.4468 
 110   0.0000     126.970092      3455.0319 

                    ********************************
                    * MULLIKEN POPULATION ANALYSIS *
                    ********************************

-----------------------
MULLIKEN ATOMIC CHARGES
-----------------------
   0 Kr:   34.000000
Sum of atomic charges:   34.0000000

--------------------------------
MULLIKEN REDUCED ORBITAL CHARGES
--------------------------------
  0 Krs       :     2.000000  s :     2.000000
      pz      :     0.000000  p :     0.000000
      px      :     0.000000
      py      :     0.000000
      dz2     :     0.000000  d :     0.000000
      dxz     :     0.000000
      dyz     :     0.000000
      dx2y2   :     0.000000
      dxy     :     0.000000
      f0      :     0.000000  f :     0.000000
      f+1     :     0.000000
      f-1     :     0.000000
      f+2     :     0.000000
      f-2     :     0.000000
      f+3     :     0.000000
      f-3     :     0.000000
      g0      :     0.000000  g :     0.000000
      g+1     :     0.000000
      g-1     :     0.000000
      g+2     :     0.000000
      g-2     :     0.000000
      g+3     :     0.000000
      g-3     :     0.000000
      g+4     :     0.000000
      g-4     :     0.000000
      h0      :     0.000000  h :     0.000000
      h+1     :     0.000000
      h-1     :     0.000000
      h+2     :     0.000000
      h-2     :     0.000000
      h+3     :     0.000000
      h-3     :     0.000000
      h+4     :     0.000000
      h-4     :     0.000000
      h+5     :     0.000000
      h-5     :     0.000000


                     *******************************
                     * LOEWDIN POPULATION ANALYSIS *
                     *******************************

----------------------
LOEWDIN ATOMIC CHARGES
----------------------
   0 Kr:   34.000000

-------------------------------
LOEWDIN REDUCED ORBITAL CHARGES
-------------------------------
  0 Krs       :     2.000000  s :     2.000000
      pz      :     0.000000  p :     0.000000
      px      :     0.000000
      py      :     0.000000
      dz2     :     0.000000  d :     0.000000
      dxz     :     0.000000
      dyz     :     0.000000
      dx2y2   :     0.000000
      dxy     :     0.000000
      f0      :     0.000000  f :     0.000000
      f+1     :     0.000000
      f-1     :     0.000000
      f+2     :     0.000000
      f-2     :     0.000000
      f+3     :     0.000000
      f-3     :     0.000000
      g0      :     0.000000  g :     0.000000
      g+1     :     0.000000
      g-1     :     0.000000
      g+2     :     0.000000
      g-2     :     0.000000
      g+3     :     0.000000
      g-3     :     0.000000
      g+4     :     0.000000
      g-4     :     0.000000
      h0      :     0.000000  h :     0.000000
      h+1     :     0.000000
      h-1     :     0.000000
      h+2     :     0.000000
      h-2     :     0.000000
      h+3     :     0.000000
      h-3     :     0.000000
      h+4     :     0.000000
      h-4     :     0.000000
      h+5     :     0.000000
      h-5     :     0.000000


                      *****************************
                      * MAYER POPULATION ANALYSIS *
                      *****************************

  NA   - Mulliken gross atomic population
  ZA   - Total nuclear charge
  QA   - Mulliken gross atomic charge
  VA   - Mayer's total valence
  BVA  - Mayer's bonded valence
  FA   - Mayer's free valence

  ATOM       NA         ZA         QA         VA         BVA        FA
  0 Kr     2.0000    36.0000    34.0000     0.0000     0.0000     0.0000

  Mayer bond orders larger than 0.100000


--------------------------
ATOM BASIS FOR ELEMENT Kr
--------------------------
 NewGTO Kr
 S 84
    1   81180000.000000000000         0.000000608269
    2   12174000.000000000000         0.000004718340
    3    2775000.000000000000         0.000024772597
    4     787190.000000000000         0.000104528223
    5     257190.000000000000         0.000380714092
    6      92980.000000000000         0.001243632439
    7      36316.000000000000         0.003724397622
    8      15086.000000000000         0.010352770833
    9       6592.600000000000         0.026780929686
   10       3007.200000000000         0.063934348377
   11       1422.900000000000         0.137552510329
   12        693.380000000000         0.254999787797
   13        347.150000000000         0.365151341462
   14        177.900000000000         0.345615744694
   15         92.353000000000         0.162127195609
   16         45.341000000000         0.019935802638
   17         23.694000000000        -0.001366761471
   18         12.583000000000         0.000622677977
   19          6.605000000000        -0.000289397044
   20          3.354100000000         0.000133966724
   21   81180000.000000000000        -0.000000226327
   22   12174000.000000000000        -0.000001755227
   23    2775000.000000000000        -0.000009220327
   24     787190.000000000000        -0.000038884865
   25     257190.000000000000        -0.000141798286
   26      92980.000000000000        -0.000463208862
   27      36316.000000000000        -0.001392334510
   28      15086.000000000000        -0.003887101804
   29       6592.600000000000        -0.010199488034
   30       3007.200000000000        -0.024952904156
   31       1422.900000000000        -0.056752547952
   32        693.380000000000        -0.116517661345
   33        347.150000000000        -0.201124900185
   34        177.900000000000        -0.261083876319
   35         92.353000000000        -0.126432355782
   36         45.341000000000         0.386094572005
   37         23.694000000000         0.769296588837
   38         12.583000000000         0.472917385021
   39          6.605000000000         0.074766396876
   40          3.354100000000        -0.000050595098
   41   81180000.000000000000         0.000000370320
   42   12174000.000000000000         0.000002874005
   43    2775000.000000000000         0.000015075244
   44     787190.000000000000         0.000063698261
   45     257190.000000000000         0.000231739820
   46      92980.000000000000         0.000759317022
   47      36316.000000000000         0.002275213917
   48      15086.000000000000         0.006382545812
   49       6592.600000000000         0.016694991935
   50       3007.200000000000         0.041212591480
   51       1422.900000000000         0.093763415500
   52        693.380000000000         0.196776780721
   53        347.150000000000         0.344743774529
   54        177.900000000000         0.478115329829
   55         92.353000000000         0.235966297906
   56         45.341000000000        -0.913724363287
   57         23.694000000000        -2.488067416013
   58         12.583000000000        -1.929125719599
   59          6.605000000000         1.534332391180
   60          3.354100000000         4.025217459414
   61   81180000.000000000000        -0.000000219029
   62   12174000.000000000000        -0.000001697027
   63    2775000.000000000000        -0.000008904493
   64     787190.000000000000        -0.000037612381
   65     257190.000000000000        -0.000136901800
   66      92980.000000000000        -0.000448323124
   67      36316.000000000000        -0.001344355022
   68      15086.000000000000        -0.003768628056
   69       6592.600000000000        -0.009868753602
   70       3007.200000000000        -0.024348683215
   71       1422.900000000000        -0.055522868516
   72        693.380000000000        -0.116583778118
   73        347.150000000000        -0.205459543597
   74        177.900000000000        -0.286215223109
   75         92.353000000000        -0.144407537597
   76         45.341000000000         0.574202263221
   77         23.694000000000         1.627756706550
   78         12.583000000000         1.363319696460
   79          6.605000000000        -1.257455856394
   80          3.354100000000        -4.451801516655
   81          1.662200000000         0.292652530505
   82          0.654060000000        -0.154922017528
   83          0.303170000000         0.081500720992
   84          0.129700000000        -0.021388105544
 S 84
    1   81180000.000000000000         0.000000151387
    2   12174000.000000000000         0.000001174309
    3    2775000.000000000000         0.000006165449
    4     787190.000000000000         0.000026015172
    5     257190.000000000000         0.000094752809
    6      92980.000000000000         0.000309517481
    7      36316.000000000000         0.000926934787
    8      15086.000000000000         0.002576616249
    9       6592.600000000000         0.006665286008
   10       3007.200000000000         0.015912095759
   11       1422.900000000000         0.034234316479
   12        693.380000000000         0.063464806398
   13        347.150000000000         0.090879523439
   14        177.900000000000         0.086017468935
   15         92.353000000000         0.040350508407
   16         45.341000000000         0.004961658462
   17         23.694000000000        -0.000340162056
   18         12.583000000000         0.000154973216
   19          6.605000000000        -0.000072025658
   20          3.354100000000         0.000033341880
   21   81180000.000000000000        -0.000000192198
   22   12174000.000000000000        -0.000001490546
   23    2775000.000000000000        -0.000007829937
   24     787190.000000000000        -0.000033021176
   25     257190.000000000000        -0.000120415646
   26      92980.000000000000        -0.000393358735
   27      36316.000000000000        -0.001182375786
   28      15086.000000000000        -0.003300941703
   29       6592.600000000000        -0.008661444207
   30       3007.200000000000        -0.021190101543
   31       1422.900000000000        -0.048194480548
   32        693.380000000000        -0.098947243180
   33        347.150000000000        -0.170796033652
   34        177.900000000000        -0.221713425263
   35         92.353000000000        -0.107366839575
   36         45.341000000000         0.327872985653
   37         23.694000000000         0.653289602401
   38         12.583000000000         0.401603250180
   39          6.605000000000         0.063491909878
   40          3.354100000000        -0.000042965551
   41   81180000.000000000000         0.000000550507
   42   12174000.000000000000         0.000004272416
   43    2775000.000000000000         0.000022410435
   44     787190.000000000000         0.000094692046
   45     257190.000000000000         0.000344497908
   46      92980.000000000000         0.001128779362
   47      36316.000000000000         0.003382269119
   48      15086.000000000000         0.009488113378
   49       6592.600000000000         0.024818306203
   50       3007.200000000000         0.061265481215
   51       1422.900000000000         0.139386060539
   52        693.380000000000         0.292522836589
   53        347.150000000000         0.512486414567
   54        177.900000000000         0.710752823509
   55         92.353000000000         0.350780872367
   56         45.341000000000        -1.358316980438
   57         23.694000000000        -3.698691153958
   58         12.583000000000        -2.867784123546
   59          6.605000000000         2.280895447593
   60          3.354100000000         5.983775244222
   61   81180000.000000000000        -0.000000313535
   62   12174000.000000000000        -0.000002429259
   63    2775000.000000000000        -0.000012746599
   64     787190.000000000000        -0.000053841349
   65     257190.000000000000        -0.000195972110
   66      92980.000000000000        -0.000641765327
   67      36316.000000000000        -0.001924416554
   68      15086.000000000000        -0.005394713524
   69       6592.600000000000        -0.014126917735
   70       3007.200000000000        -0.034854639057
   71       1422.900000000000        -0.079479843917
   72        693.380000000000        -0.166887279706
   73        347.150000000000        -0.294111109402
   74        177.900000000000        -0.409711203104
   75         92.353000000000        -0.206716418937
   76         45.341000000000         0.821958725794
   77         23.694000000000         2.330100234911
   78         12.583000000000         1.951564095666
   79          6.605000000000        -1.800022186722
   80          3.354100000000        -6.372662276860
   81          1.662200000000         0.176337034341
   82          0.654060000000        -0.066032157092
   83          0.303170000000         0.029919574980
   84          0.129700000000        -0.007239337616
 S 84
    1   81180000.000000000000         0.000000190242
    2   12174000.000000000000         0.000001475705
    3    2775000.000000000000         0.000007747865
    4     787190.000000000000         0.000032692194
    5     257190.000000000000         0.000119071945
    6      92980.000000000000         0.000388957848
    7      36316.000000000000         0.001164840704
    8      15086.000000000000         0.003237927336
    9       6592.600000000000         0.008375989935
   10       3007.200000000000         0.019996074252
   11       1422.900000000000         0.043020853108
   12        693.380000000000         0.079753603821
   13        347.150000000000         0.114204547671
   14        177.900000000000         0.108094604371
   15         92.353000000000         0.050706819166
   16         45.341000000000         0.006235111485
   17         23.694000000000        -0.000427467622
   18         12.583000000000         0.000194748447
   19          6.605000000000        -0.000090511672
   20          3.354100000000         0.000041899364
   21   81180000.000000000000        -0.000000416530
   22   12174000.000000000000        -0.000003230301
   23    2775000.000000000000        -0.000016968991
   24     787190.000000000000        -0.000071563289
   25     257190.000000000000        -0.000260964043
   26      92980.000000000000        -0.000852484618
   27      36316.000000000000        -0.002562437488
   28      15086.000000000000        -0.007153780438
   29       6592.600000000000        -0.018771028301
   30       3007.200000000000        -0.045923056974
   31       1422.900000000000        -0.104446780093
   32        693.380000000000        -0.214437853289
   33        347.150000000000        -0.370148107513
   34        177.900000000000        -0.480495963616
   35         92.353000000000        -0.232684750511
   36         45.341000000000         0.710564306146
   37         23.694000000000         1.415805184796
   38         12.583000000000         0.870352079302
   39          6.605000000000         0.137599274300
   40          3.354100000000        -0.000093114675
   41   81180000.000000000000         0.000000600943
   42   12174000.000000000000         0.000004663842
   43    2775000.000000000000         0.000024463614
   44     787190.000000000000         0.000103367459
   45     257190.000000000000         0.000376059813
   46      92980.000000000000         0.001232194872
   47      36316.000000000000         0.003692142863
   48      15086.000000000000         0.010357386967
   49       6592.600000000000         0.027092087853
   50       3007.200000000000         0.066878447943
   51       1422.900000000000         0.152156209480
   52        693.380000000000         0.319322935375
   53        347.150000000000         0.559438942093
   54        177.900000000000         0.775869947713
   55         92.353000000000         0.382918404402
   56         45.341000000000        -1.482762065422
   57         23.694000000000        -4.037554572152
   58         12.583000000000        -3.130522235568
   59          6.605000000000         2.489864511442
   60          3.354100000000         6.531991477628
   61   81180000.000000000000        -0.000000264327
   62   12174000.000000000000        -0.000002047999
   63    2775000.000000000000        -0.000010746086
   64     787190.000000000000        -0.000045391228
   65     257190.000000000000        -0.000165215300
   66      92980.000000000000        -0.000541043576
   67      36316.000000000000        -0.001622389321
   68      15086.000000000000        -0.004548041115
   69       6592.600000000000        -0.011909771002
   70       3007.200000000000        -0.029384383578
   71       1422.900000000000        -0.067005893149
   72        693.380000000000        -0.140695183593
   73        347.150000000000        -0.247951890683
   74        177.900000000000        -0.345409147074
   75         92.353000000000        -0.174273345250
   76         45.341000000000         0.692956551483
   77         23.694000000000         1.964403044488
   78         12.583000000000         1.645276196106
   79          6.605000000000        -1.517518006635
   80          3.354100000000        -5.372505865026
   81          1.662200000000        -0.872037442185
   82          0.654060000000         0.513082322828
   83          0.303170000000        -0.276300708810
   84          0.129700000000         0.072833977170
 S 84
    1   81180000.000000000000        -0.000000150787
    2   12174000.000000000000        -0.000001169656
    3    2775000.000000000000        -0.000006141019
    4     787190.000000000000        -0.000025912090
    5     257190.000000000000        -0.000094377361
    6      92980.000000000000        -0.000308291052
    7      36316.000000000000        -0.000923261909
    8      15086.000000000000        -0.002566406687
    9       6592.600000000000        -0.006638875537
   10       3007.200000000000        -0.015849045809
   11       1422.900000000000        -0.034098666722
   12        693.380000000000        -0.063213334003
   13        347.150000000000        -0.090519423208
   14        177.900000000000        -0.085676634066
   15         92.353000000000        -0.040190623904
   16         45.341000000000        -0.004941998429
   17         23.694000000000         0.000338814201
   18         12.583000000000        -0.000154359152
   19          6.605000000000         0.000071740264
   20          3.354100000000        -0.000033209766
   21   81180000.000000000000         0.000000285525
   22   12174000.000000000000         0.000002214321
   23    2775000.000000000000         0.000011631981
   24     787190.000000000000         0.000049055527
   25     257190.000000000000         0.000178886812
   26      92980.000000000000         0.000584365008
   27      36316.000000000000         0.001756511229
   28      15086.000000000000         0.004903805743
   29       6592.600000000000         0.012867249309
   30       3007.200000000000         0.031479544627
   31       1422.900000000000         0.071596650827
   32        693.380000000000         0.146993828746
   33        347.150000000000         0.253730797488
   34        177.900000000000         0.329372544566
   35         92.353000000000         0.159501794314
   36         45.341000000000        -0.487080831713
   37         23.694000000000        -0.970512536289
   38         12.583000000000        -0.596612876559
   39          6.605000000000        -0.094322172377
   40          3.354100000000         0.000063828668
   41   81180000.000000000000        -0.000000197398
   42   12174000.000000000000        -0.000001531978
   43    2775000.000000000000        -0.000008035804
   44     787190.000000000000        -0.000033954124
   45     257190.000000000000        -0.000123528059
   46      92980.000000000000        -0.000404751146
   47      36316.000000000000        -0.001212794412
   48      15086.000000000000        -0.003402192576
   49       6592.600000000000        -0.008899204060
   50       3007.200000000000        -0.021968220342
   51       1422.900000000000        -0.049980243847
   52        693.380000000000        -0.104891139380
   53        347.150000000000        -0.183764401328
   54        177.900000000000        -0.254857618450
   55         92.353000000000        -0.125780967409
   56         45.341000000000         0.487057411923
   57         23.694000000000         1.326255187039
   58         12.583000000000         1.028313371093
   59          6.605000000000        -0.817870239105
   60          3.354100000000        -2.145627365299
   61   81180000.000000000000        -0.000000002387
   62   12174000.000000000000        -0.000000018491
   63    2775000.000000000000        -0.000000097026
   64     787190.000000000000        -0.000000409835
   65     257190.000000000000        -0.000001491721
   66      92980.000000000000        -0.000004885058
   67      36316.000000000000        -0.000014648478
   68      15086.000000000000        -0.000041064054
   69       6592.600000000000        -0.000107532773
   70       3007.200000000000        -0.000265310245
   71       1422.900000000000        -0.000604993121
   72        693.380000000000        -0.001270330327
   73        347.150000000000        -0.002238746192
   74        177.900000000000        -0.003118683268
   75         92.353000000000        -0.001573506001
   76         45.341000000000         0.006256672762
   77         23.694000000000         0.017736504542
   78         12.583000000000         0.014855122938
   79          6.605000000000        -0.013701600134
   80          3.354100000000        -0.048508107816
   81          1.662200000000         3.689656308499
   82          0.654060000000        -1.349556354409
   83          0.303170000000         0.681190627405
   84          0.129700000000        -0.173147095888
 S 84
    1   81180000.000000000000        -0.000000102807
    2   12174000.000000000000        -0.000000797471
    3    2775000.000000000000        -0.000004186946
    4     787190.000000000000        -0.000017666861
    5     257190.000000000000        -0.000064346477
    6      92980.000000000000        -0.000210192815
    7      36316.000000000000        -0.000629479897
    8      15086.000000000000        -0.001749775877
    9       6592.600000000000        -0.004526384818
   10       3007.200000000000        -0.010805878183
   11       1422.900000000000        -0.023248468283
   12        693.380000000000        -0.043098846140
   13        347.150000000000        -0.061716135607
   14        177.900000000000        -0.058414322352
   15         92.353000000000        -0.027401964210
   16         45.341000000000        -0.003369454140
   17         23.694000000000         0.000231003496
   18         12.583000000000        -0.000105242057
   19          6.605000000000         0.000048912506
   20          3.354100000000        -0.000022642416
   21   81180000.000000000000         0.000000174769
   22   12174000.000000000000         0.000001355377
   23    2775000.000000000000         0.000007119887
   24     787190.000000000000         0.000030026684
   25     257190.000000000000         0.000109495875
   26      92980.000000000000         0.000357687397
   27      36316.000000000000         0.001075153236
   28      15086.000000000000         0.003001599151
   29       6592.600000000000         0.007875989920
   30       3007.200000000000         0.019268498669
   31       1422.900000000000         0.043824012943
   32        693.380000000000         0.089974312752
   33        347.150000000000         0.155307568505
   34        177.900000000000         0.201607568082
   35         92.353000000000         0.097630386585
   36         45.341000000000        -0.298140156370
   37         23.694000000000        -0.594046697159
   38         12.583000000000        -0.365184266611
   39          6.605000000000        -0.057734210403
   40          3.354100000000         0.000039069263
   41   81180000.000000000000        -0.000000039285
   42   12174000.000000000000        -0.000000304888
   43    2775000.000000000000        -0.000001599255
   44     787190.000000000000        -0.000006757421
   45     257190.000000000000        -0.000024584086
   46      92980.000000000000        -0.000080552040
   47      36316.000000000000        -0.000241365750
   48      15086.000000000000        -0.000677091480
   49       6592.600000000000        -0.001771085885
   50       3007.200000000000        -0.004372032005
   51       1422.900000000000        -0.009946878823
   52        693.380000000000        -0.020875037268
   53        347.150000000000        -0.036572095117
   54        177.900000000000        -0.050720797912
   55         92.353000000000        -0.025032451719
   56         45.341000000000         0.096932321316
   57         23.694000000000         0.263946283930
   58         12.583000000000         0.204651032221
   59          6.605000000000        -0.162769437178
   60          3.354100000000        -0.427014631349
   61   81180000.000000000000        -0.000000071847
   62   12174000.000000000000        -0.000000556668
   63    2775000.000000000000        -0.000002920902
   64     787190.000000000000        -0.000012337825
   65     257190.000000000000        -0.000044907300
   66      92980.000000000000        -0.000147061476
   67      36316.000000000000        -0.000440982906
   68      15086.000000000000        -0.001236206599
   69       6592.600000000000        -0.003237204136
   70       3007.200000000000        -0.007986992197
   71       1422.900000000000        -0.018212924027
   72        693.380000000000        -0.038242467481
   73        347.150000000000        -0.067395996609
   74        177.900000000000        -0.093885929407
   75         92.353000000000        -0.047369373765
   76         45.341000000000         0.188353060206
   77         23.694000000000         0.533945922173
   78         12.583000000000         0.447203804852
   79          6.605000000000        -0.412477751824
   80          3.354100000000        -1.460305005396
   81          1.662200000000         4.930270771268
   82          0.654060000000        -4.470698761833
   83          0.303170000000         1.514053981783
   84          0.129700000000        -0.346417032518
 S 84
    1   81180000.000000000000        -0.000000067529
    2   12174000.000000000000        -0.000000523822
    3    2775000.000000000000        -0.000002750210
    4     787190.000000000000        -0.000011604538
    5     257190.000000000000        -0.000042266204
    6      92980.000000000000        -0.000138065870
    7      36316.000000000000        -0.000413476025
    8      15086.000000000000        -0.001149346273
    9       6592.600000000000        -0.002973171359
   10       3007.200000000000        -0.007097878067
   11       1422.900000000000        -0.015270835958
   12        693.380000000000        -0.028309624589
   13        347.150000000000        -0.040538454891
   14        177.900000000000        -0.038369647555
   15         92.353000000000        -0.017999073972
   16         45.341000000000        -0.002213237483
   17         23.694000000000         0.000151735437
   18         12.583000000000        -0.000069128606
   19          6.605000000000         0.000032128347
   20          3.354100000000        -0.000014872748
   21   81180000.000000000000         0.000000113850
   22   12174000.000000000000         0.000000882938
   23    2775000.000000000000         0.000004638132
   24     787190.000000000000         0.000019560384
   25     257190.000000000000         0.000071329265
   26      92980.000000000000         0.000233009500
   27      36316.000000000000         0.000700390677
   28      15086.000000000000         0.001955341798
   29       6592.600000000000         0.005130682518
   30       3007.200000000000         0.012552142686
   31       1422.900000000000         0.028548423671
   32        693.380000000000         0.058612268194
   33        347.150000000000         0.101172530020
   34        177.900000000000         0.131333893964
   35         92.353000000000         0.063599690038
   36         45.341000000000        -0.194218441578
   37         23.694000000000        -0.386981831470
   38         12.583000000000        -0.237893211078
   39          6.605000000000        -0.037609990237
   40          3.354100000000         0.000025451021
   41   81180000.000000000000        -0.000000030211
   42   12174000.000000000000        -0.000000234461
   43    2775000.000000000000        -0.000001229838
   44     787190.000000000000        -0.000005196502
   45     257190.000000000000        -0.000018905327
   46      92980.000000000000        -0.000061945059
   47      36316.000000000000        -0.000185611881
   48      15086.000000000000        -0.000520687890
   49       6592.600000000000        -0.001361976925
   50       3007.200000000000        -0.003362121937
   51       1422.900000000000        -0.007649216534
   52        693.380000000000        -0.016053043680
   53        347.150000000000        -0.028124186454
   54        177.900000000000        -0.039004633807
   55         92.353000000000        -0.019250123278
   56         45.341000000000         0.074541605271
   57         23.694000000000         0.202976462776
   58         12.583000000000         0.157378016485
   59          6.605000000000        -0.125170788974
   60          3.354100000000        -0.328377115731
   61   81180000.000000000000        -0.000000039642
   62   12174000.000000000000        -0.000000307143
   63    2775000.000000000000        -0.000001611615
   64     787190.000000000000        -0.000006807424
   65     257190.000000000000        -0.000024777708
   66      92980.000000000000        -0.000081141514
   67      36316.000000000000        -0.000243313353
   68      15086.000000000000        -0.000682079892
   69       6592.600000000000        -0.001786134979
   70       3007.200000000000        -0.004406841687
   71       1422.900000000000        -0.010049023572
   72        693.380000000000        -0.021100371175
   73        347.150000000000        -0.037185899285
   74        177.900000000000        -0.051801781869
   75         92.353000000000        -0.026136163135
   76         45.341000000000         0.103924242970
   77         23.694000000000         0.294605915551
   78         12.583000000000         0.246745748765
   79          6.605000000000        -0.227585567516
   80          3.354100000000        -0.805726713574
   81          1.662200000000         3.823380791508
   82          0.654060000000        -6.287121521082
   83          0.303170000000         4.952703944770
   84          0.129700000000        -0.822596103146
 S 84
    1   81180000.000000000000        -0.000000040365
    2   12174000.000000000000        -0.000000313114
    3    2775000.000000000000        -0.000001643938
    4     787190.000000000000        -0.000006936614
    5     257190.000000000000        -0.000025264628
    6      92980.000000000000        -0.000082528890
    7      36316.000000000000        -0.000247155342
    8      15086.000000000000        -0.000687021869
    9       6592.600000000000        -0.001777213526
   10       3007.200000000000        -0.004242757442
   11       1422.900000000000        -0.009128143974
   12        693.380000000000        -0.016922081399
   13        347.150000000000        -0.024231866138
   14        177.900000000000        -0.022935461299
   15         92.353000000000        -0.010758948565
   16         45.341000000000        -0.001322962964
   17         23.694000000000         0.000090699875
   18         12.583000000000        -0.000041321632
   19          6.605000000000         0.000019204723
   20          3.354100000000        -0.000008890187
   21   81180000.000000000000         0.000000071425
   22   12174000.000000000000         0.000000553917
   23    2775000.000000000000         0.000002909763
   24     787190.000000000000         0.000012271338
   25     257190.000000000000         0.000044748894
   26      92980.000000000000         0.000146180077
   27      36316.000000000000         0.000439394802
   28      15086.000000000000         0.001226696829
   29       6592.600000000000         0.003218768188
   30       3007.200000000000         0.007874671143
   31       1422.900000000000         0.017910045614
   32        693.380000000000         0.036770800693
   33        347.150000000000         0.063471267221
   34        177.900000000000         0.082393201765
   35         92.353000000000         0.039899693334
   36         45.341000000000        -0.121844245688
   37         23.694000000000        -0.242775654914
   38         12.583000000000        -0.149243906102
   39          6.605000000000        -0.023594880350
   40          3.354100000000         0.000015966869
   41   81180000.000000000000        -0.000000040813
   42   12174000.000000000000        -0.000000316741
   43    2775000.000000000000        -0.000001661428
   44     787190.000000000000        -0.000007020122
   45     257190.000000000000        -0.000025539813
   46      92980.000000000000        -0.000083683568
   47      36316.000000000000        -0.000250749047
   48      15086.000000000000        -0.000703413981
   49       6592.600000000000        -0.001839938339
   50       3007.200000000000        -0.004541998428
   51       1422.900000000000        -0.010333572107
   52        693.380000000000        -0.021686571908
   53        347.150000000000        -0.037993866090
   54        177.900000000000        -0.052692611612
   55         92.353000000000        -0.026005609345
   56         45.341000000000         0.100700646877
   57         23.694000000000         0.274207417830
   58         12.583000000000         0.212607013313
   59          6.605000000000        -0.169097236020
   60          3.354100000000        -0.443615184479
   61   81180000.000000000000        -0.000000003322
   62   12174000.000000000000        -0.000000025737
   63    2775000.000000000000        -0.000000135045
   64     787190.000000000000        -0.000000570429
   65     257190.000000000000        -0.000002076252
   66      92980.000000000000        -0.000006799265
   67      36316.000000000000        -0.000020388477
   68      15086.000000000000        -0.000057154982
   69       6592.600000000000        -0.000149669436
   70       3007.200000000000        -0.000369271930
   71       1422.900000000000        -0.000842059369
   72        693.380000000000        -0.001768108624
   73        347.150000000000        -0.003115997756
   74        177.900000000000        -0.004340737730
   75         92.353000000000        -0.002190083533
   76         45.341000000000         0.008708346822
   77         23.694000000000         0.024686544881
   78         12.583000000000         0.020676095352
   79          6.605000000000        -0.019070565220
   80          3.354100000000        -0.067515985344
   81          1.662200000000         2.012494785291
   82          0.654060000000        -4.490763165147
   83          0.303170000000         5.890204699080
   84          0.129700000000        -3.312717870512
 S 84
    1   81180000.000000000000         0.000003894795
    2   12174000.000000000000         0.000030211899
    3    2775000.000000000000         0.000158620888
    4     787190.000000000000         0.000669302428
    5     257190.000000000000         0.002437742252
    6      92980.000000000000         0.007963076252
    7      36316.000000000000         0.023847610705
    8      15086.000000000000         0.066289605349
    9       6592.600000000000         0.171480397698
   10       3007.200000000000         0.409376657753
   11       1422.900000000000         0.880759534956
   12        693.380000000000         1.632783683678
   13        347.150000000000         2.338092739465
   14        177.900000000000         2.213004777903
   15         92.353000000000         1.038113176322
   16         45.341000000000         0.127650511204
   17         23.694000000000        -0.008751481124
   18         12.583000000000         0.003987056025
   19          6.605000000000        -0.001853032020
   20          3.354100000000         0.000857799464
   21   81180000.000000000000        -0.000008469602
   22   12174000.000000000000        -0.000065684040
   23    2775000.000000000000        -0.000345042729
   24     787190.000000000000        -0.001455147910
   25     257190.000000000000        -0.005306369902
   26      92980.000000000000        -0.017334183903
   27      36316.000000000000        -0.052103887535
   28      15086.000000000000        -0.145462971543
   29       6592.600000000000        -0.381684841932
   30       3007.200000000000        -0.933786602473
   31       1422.900000000000        -2.123791627749
   32        693.380000000000        -4.360319361531
   33        347.150000000000        -7.526488141282
   34        177.900000000000        -9.770270598945
   35         92.353000000000        -4.731346668618
   36         45.341000000000        14.448415959098
   37         23.694000000000        28.788586831708
   38         12.583000000000        17.697495868924
   39          6.605000000000         2.797905177000
   40          3.354100000000        -0.001893367779
   41   81180000.000000000000         0.000013742385
   42   12174000.000000000000         0.000106652854
   43    2775000.000000000000         0.000559434550
   44     787190.000000000000         0.002363809642
   45     257190.000000000000         0.008599745254
   46      92980.000000000000         0.028177863279
   47      36316.000000000000         0.084432015691
   48      15086.000000000000         0.236852985209
   49       6592.600000000000         0.619542545252
   50       3007.200000000000         1.529378026767
   51       1422.900000000000         3.479512018784
   52        693.380000000000         7.302284903849
   53        347.150000000000        12.793263774395
   54        177.900000000000        17.742613445142
   55         92.353000000000         8.756587686320
   56         45.341000000000       -33.907840141836
   57         23.694000000000       -92.330899332475
   58         12.583000000000       -71.588861085359
   59          6.605000000000        56.938284164164
   60          3.354100000000       149.373745118222
   61   81180000.000000000000        -0.000008198443
   62   12174000.000000000000        -0.000063521269
   63    2775000.000000000000        -0.000333303363
   64     787190.000000000000        -0.001407865939
   65     257190.000000000000        -0.005124360070
   66      92980.000000000000        -0.016781146110
   67      36316.000000000000        -0.050320442698
   68      15086.000000000000        -0.141063208033
   69       6592.600000000000        -0.369396507627
   70       3007.200000000000        -0.911393566770
   71       1422.900000000000        -2.078271942947
   72        693.380000000000        -4.363837848132
   73        347.150000000000        -7.690539345005
   74        177.900000000000       -10.713298569273
   75         92.353000000000        -5.405306709856
   76         45.341000000000        21.492917875660
   77         23.694000000000        60.928427936117
   78         12.583000000000        51.030307874293
   79          6.605000000000       -47.067727149205
   80          3.354100000000      -166.635017875825
   81          1.662200000000        12.759884546129
   82          0.654060000000        -7.123929760033
   83          0.303170000000         3.835770025672
   84          0.129700000000        -1.021557967257
 P 49
    1      97285.000000000000         0.000007814917
    2      23066.000000000000         0.000069729711
    3       7508.300000000000         0.000407920877
    4       2884.200000000000         0.001860982792
    5       1235.000000000000         0.007044391300
    6        565.950000000000         0.023627040374
    7        273.290000000000         0.065482953703
    8        137.780000000000         0.153485686161
    9         71.579000000000         0.277926226701
   10         38.347000000000         0.356032674927
   11         20.853000000000         0.284626761644
   12         11.399000000000         0.112100448027
   13          5.944400000000         0.013322030630
   14          3.115000000000        -0.000412107821
   15          1.606000000000         0.000190762307
   16      97285.000000000000        -0.000002678275
   17      23066.000000000000        -0.000023863340
   18       7508.300000000000        -0.000140010791
   19       2884.200000000000        -0.000639220890
   20       1235.000000000000        -0.002438212476
   21        565.950000000000        -0.008250131085
   22        273.290000000000        -0.023417903109
   23        137.780000000000        -0.056690426586
   24         71.579000000000        -0.109204596781
   25         38.347000000000        -0.143311454686
   26         20.853000000000        -0.097392499487
   27         11.399000000000         0.124156908815
   28          5.944400000000         0.364478841731
   29          3.115000000000         0.382021257894
   30          1.606000000000         0.174904612714
   31      97285.000000000000         0.000002333299
   32      23066.000000000000         0.000020865906
   33       7508.300000000000         0.000122016385
   34       2884.200000000000         0.000559121699
   35       1235.000000000000         0.002127381208
   36        565.950000000000         0.007230607505
   37        273.290000000000         0.020516004448
   38        137.780000000000         0.050077051124
   39         71.579000000000         0.096746774591
   40         38.347000000000         0.128771163860
   41         20.853000000000         0.082485957600
   42         11.399000000000        -0.138341993606
   43          5.944400000000        -0.426383739676
   44          3.115000000000        -0.467782490045
   45          1.606000000000        -0.094566908188
   46          0.782220000000        -0.012550825643
   47          0.365320000000        -0.013981739127
   48          0.160620000000         0.011311284705
   49          0.067693000000        -0.003891643907
 P 49
    1      97285.000000000000        -0.000005074219
    2      23066.000000000000        -0.000045275440
    3       7508.300000000000        -0.000264862665
    4       2884.200000000000        -0.001208334481
    5       1235.000000000000        -0.004573917040
    6        565.950000000000        -0.015341016415
    7        273.290000000000        -0.042518023917
    8        137.780000000000        -0.099658120259
    9         71.579000000000        -0.180457253158
   10         38.347000000000        -0.231171700902
   11         20.853000000000        -0.184807904569
   12         11.399000000000        -0.072786721746
   13          5.944400000000        -0.008649982704
   14          3.115000000000         0.000267581244
   15          1.606000000000        -0.000123861797
   16      97285.000000000000         0.000021357895
   17      23066.000000000000         0.000190298146
   18       7508.300000000000         0.001116515714
   19       2884.200000000000         0.005097465440
   20       1235.000000000000         0.019443519493
   21        565.950000000000         0.065790650379
   22        273.290000000000         0.186746011679
   23        137.780000000000         0.452077669642
   24         71.579000000000         0.870851792797
   25         38.347000000000         1.142836848631
   26         20.853000000000         0.776656251506
   27         11.399000000000        -0.990088968932
   28          5.944400000000        -2.906535641472
   29          3.115000000000        -3.046427596714
   30          1.606000000000        -1.394776410879
   31      97285.000000000000        -0.000019209463
   32      23066.000000000000        -0.000171783742
   33       7508.300000000000        -0.001004530138
   34       2884.200000000000        -0.004603108006
   35       1235.000000000000        -0.017514193223
   36        565.950000000000        -0.059527768919
   37        273.290000000000        -0.168903093008
   38        137.780000000000        -0.412271738627
   39         71.579000000000        -0.796491807560
   40         38.347000000000        -1.060140531791
   41         20.853000000000        -0.679086096094
   42         11.399000000000         1.138934760505
   43          5.944400000000         3.510309847164
   44          3.115000000000         3.851135323274
   45          1.606000000000         0.778545516953
   46          0.782220000000         0.221990186312
   47          0.365320000000        -0.036403218299
   48          0.160620000000        -0.004432927400
   49          0.067693000000         0.003769537236
 P 49
    1      97285.000000000000        -0.000016015915
    2      23066.000000000000        -0.000142904285
    3       7508.300000000000        -0.000835994301
    4       2884.200000000000        -0.003813903864
    5       1235.000000000000        -0.014436797221
    6        565.950000000000        -0.048421329296
    7        273.290000000000        -0.134200966960
    8        137.780000000000        -0.314554037845
    9         71.579000000000        -0.569582864816
   10         38.347000000000        -0.729654460322
   11         20.853000000000        -0.583314961759
   12         11.399000000000        -0.229739003377
   13          5.944400000000        -0.027302210596
   14          3.115000000000         0.000844575038
   15          1.606000000000        -0.000390948860
   16      97285.000000000000         0.000068743267
   17      23066.000000000000         0.000612500271
   18       7508.300000000000         0.003593656536
   19       2884.200000000000         0.016406880590
   20       1235.000000000000         0.062581592029
   21        565.950000000000         0.211756088846
   22        273.290000000000         0.601067246075
   23        137.780000000000         1.455073002423
   24         71.579000000000         2.802954045072
   25         38.347000000000         3.678374660563
   26         20.853000000000         2.499772980657
   27         11.399000000000        -3.186734991424
   28          5.944400000000        -9.355077294209
   29          3.115000000000        -9.805338435151
   30          1.606000000000        -4.489276149150
   31      97285.000000000000        -0.000054110252
   32      23066.000000000000        -0.000483889712
   33       7508.300000000000        -0.002829614683
   34       2884.200000000000        -0.012966282957
   35       1235.000000000000        -0.049334924311
   36        565.950000000000        -0.167681030842
   37        273.290000000000        -0.475775344219
   38        137.780000000000        -1.161309274234
   39         71.579000000000        -2.243601091965
   40         38.347000000000        -2.986261041467
   41         20.853000000000        -1.912886350211
   42         11.399000000000         3.208212875630
   43          5.944400000000         9.888030148566
   44          3.115000000000        10.848085736221
   45          1.606000000000         2.193049012434
   46          0.782220000000         0.502412374432
   47          0.365320000000        -0.114097337030
   48          0.160620000000         0.015170288004
   49          0.067693000000        -0.000317778539
 P 49
    1      97285.000000000000        -0.000024599262
    2      23066.000000000000        -0.000219490418
    3       7508.300000000000        -0.001284025448
    4       2884.200000000000        -0.005857874400
    5       1235.000000000000        -0.022173853321
    6        565.950000000000        -0.074371582351
    7        273.290000000000        -0.206122764719
    8        137.780000000000        -0.483131749366
    9         71.579000000000        -0.874837175111
   10         38.347000000000        -1.120695312842
   11         20.853000000000        -0.895928660899
   12         11.399000000000        -0.352862126202
   13          5.944400000000        -0.041934177216
   14          3.115000000000         0.001297204825
   15          1.606000000000        -0.000600468549
   16      97285.000000000000         0.000103037783
   17      23066.000000000000         0.000918063297
   18       7508.300000000000         0.005386453406
   19       2884.200000000000         0.024591915489
   20       1235.000000000000         0.093802183414
   21        565.950000000000         0.317396583263
   22        273.290000000000         0.900926586127
   23        137.780000000000         2.180977188824
   24         71.579000000000         4.201286686954
   25         38.347000000000         5.513435554971
   26         20.853000000000         3.746855201750
   27         11.399000000000        -4.776527577346
   28          5.944400000000       -14.022121326136
   29          3.115000000000       -14.697007930295
   30          1.606000000000        -6.728878110806
   31      97285.000000000000        -0.000079534660
   32      23066.000000000000        -0.000711251615
   33       7508.300000000000        -0.004159146109
   34       2884.200000000000        -0.019058660398
   35       1235.000000000000        -0.072515583016
   36        565.950000000000        -0.246468153789
   37        273.290000000000        -0.699324605289
   38        137.780000000000        -1.706965608222
   39         71.579000000000        -3.297786375709
   40         38.347000000000        -4.389394804686
   41         20.853000000000        -2.811680992043
   42         11.399000000000         4.715633607737
   43          5.944400000000        14.534050292326
   44          3.115000000000        15.945200540127
   45          1.606000000000         3.223481741192
   46          0.782220000000         2.786884290058
   47          0.365320000000        -0.164593620115
   48          0.160620000000         0.033560412886
   49          0.067693000000        -0.004837145565
 P 49
    1      97285.000000000000        -0.000028901074
    2      23066.000000000000        -0.000257873950
    3       7508.300000000000        -0.001508570246
    4       2884.200000000000        -0.006882274054
    5       1235.000000000000        -0.026051520563
    6        565.950000000000        -0.087377361925
    7        273.290000000000        -0.242168619311
    8        137.780000000000        -0.567619733068
    9         71.579000000000        -1.027824903799
   10         38.347000000000        -1.316677645717
   11         20.853000000000        -1.052604777092
   12         11.399000000000        -0.414569123530
   13          5.944400000000        -0.049267444147
   14          3.115000000000         0.001524054375
   15          1.606000000000        -0.000705475883
   16      97285.000000000000         0.000120056512
   17      23066.000000000000         0.001069699615
   18       7508.300000000000         0.006276132757
   19       2884.200000000000         0.028653756881
   20       1235.000000000000         0.109295469871
   21        565.950000000000         0.369820908644
   22        273.290000000000         1.049732436557
   23        137.780000000000         2.541208721946
   24         71.579000000000         4.895212305288
   25         38.347000000000         6.424088519575
   26         20.853000000000         4.365722469426
   27         11.399000000000        -5.565465609804
   28          5.944400000000       -16.338152089235
   29          3.115000000000       -17.124509568627
   30          1.606000000000        -7.840285460900
   31      97285.000000000000        -0.000092161886
   32      23066.000000000000        -0.000824172629
   33       7508.300000000000        -0.004819467976
   34       2884.200000000000        -0.022084485865
   35       1235.000000000000        -0.084028432993
   36        565.950000000000        -0.285598376018
   37        273.290000000000        -0.810352041470
   38        137.780000000000        -1.977969965421
   39         71.579000000000        -3.821355493109
   40         38.347000000000        -5.086271831270
   41         20.853000000000        -3.258074168465
   42         11.399000000000         5.464305548458
   43          5.944400000000        16.841531437817
   44          3.115000000000        18.476721270232
   45          1.606000000000         3.735253971990
   46          0.782220000000         5.264491151609
   47          0.365320000000        -3.311761411192
   48          0.160620000000         0.381769041588
   49          0.067693000000        -0.078545120547
 P 49
    1      97285.000000000000        -0.000021427532
    2      23066.000000000000        -0.000191190207
    3       7508.300000000000        -0.001118468370
    4       2884.200000000000        -0.005102583633
    5       1235.000000000000        -0.019314845849
    6        565.950000000000        -0.064782409618
    7        273.290000000000        -0.179546124386
    8        137.780000000000        -0.420838684581
    9         71.579000000000        -0.762039188025
[...]
  BAS[ATNO][ 13].a[ 38] =        71.579000000000;     BAS[ATNO][ 13].d[ 38] =        -2.818743821761;
  BAS[ATNO][ 13].a[ 39] =        38.347000000000;     BAS[ATNO][ 13].d[ 39] =        -3.751783189510;
  BAS[ATNO][ 13].a[ 40] =        20.853000000000;     BAS[ATNO][ 13].d[ 40] =        -2.403251006027;
  BAS[ATNO][ 13].a[ 41] =        11.399000000000;     BAS[ATNO][ 13].d[ 41] =         4.030631940082;
  BAS[ATNO][ 13].a[ 42] =         5.944400000000;     BAS[ATNO][ 13].d[ 42] =        12.422807240767;
  BAS[ATNO][ 13].a[ 43] =         3.115000000000;     BAS[ATNO][ 13].d[ 43] =        13.628971191187;
  BAS[ATNO][ 13].a[ 44] =         1.606000000000;     BAS[ATNO][ 13].d[ 44] =         2.755232816010;
  BAS[ATNO][ 13].a[ 45] =         0.782220000000;     BAS[ATNO][ 13].d[ 45] =         4.769458520569;
  BAS[ATNO][ 13].a[ 46] =         0.365320000000;     BAS[ATNO][ 13].d[ 46] =        -5.112798425163;
  BAS[ATNO][ 13].a[ 47] =         0.160620000000;     BAS[ATNO][ 13].d[ 47] =         3.278769409012;
  BAS[ATNO][ 13].a[ 48] =         0.067693000000;     BAS[ATNO][ 13].d[ 48] =        -0.462859990876;

  // Basis function  15 L = p
  InitBFNGauss(BAS[ATNO][ 14]);
  BAS[ATNO][ 14].l  = 1;
  BAS[ATNO][ 14].ng = 49;
  BAS[ATNO][ 14].a[  0] =     97285.000000000000;     BAS[ATNO][ 14].d[  0] =        -0.000009634110;
  BAS[ATNO][ 14].a[  1] =     23066.000000000000;     BAS[ATNO][ 14].d[  1] =        -0.000085961722;
  BAS[ATNO][ 14].a[  2] =      7508.300000000000;     BAS[ATNO][ 14].d[  2] =        -0.000502878617;
  BAS[ATNO][ 14].a[  3] =      2884.200000000000;     BAS[ATNO][ 14].d[  3] =        -0.002294191117;
  BAS[ATNO][ 14].a[  4] =      1235.000000000000;     BAS[ATNO][ 14].d[  4] =        -0.008684217831;
  BAS[ATNO][ 14].a[  5] =       565.950000000000;     BAS[ATNO][ 14].d[  5] =        -0.029127053932;
  BAS[ATNO][ 14].a[  6] =       273.290000000000;     BAS[ATNO][ 14].d[  6] =        -0.080726383585;
  BAS[ATNO][ 14].a[  7] =       137.780000000000;     BAS[ATNO][ 14].d[  7] =        -0.189214805917;
  BAS[ATNO][ 14].a[  8] =        71.579000000000;     BAS[ATNO][ 14].d[  8] =        -0.342623200637;
  BAS[ATNO][ 14].a[  9] =        38.347000000000;     BAS[ATNO][ 14].d[  9] =        -0.438911635158;
  BAS[ATNO][ 14].a[ 10] =        20.853000000000;     BAS[ATNO][ 14].d[ 10] =        -0.350883517611;
  BAS[ATNO][ 14].a[ 11] =        11.399000000000;     BAS[ATNO][ 14].d[ 11] =        -0.138195717446;
  BAS[ATNO][ 14].a[ 12] =         5.944400000000;     BAS[ATNO][ 14].d[ 12] =        -0.016423195564;
  BAS[ATNO][ 14].a[ 13] =         3.115000000000;     BAS[ATNO][ 14].d[ 13] =         0.000508040218;
  BAS[ATNO][ 14].a[ 14] =         1.606000000000;     BAS[ATNO][ 14].d[ 14] =        -0.000235168854;
  BAS[ATNO][ 14].a[ 15] =     97285.000000000000;     BAS[ATNO][ 14].d[ 15] =         0.000039847456;
  BAS[ATNO][ 14].a[ 16] =     23066.000000000000;     BAS[ATNO][ 14].d[ 16] =         0.000355039540;
  BAS[ATNO][ 14].a[ 17] =      7508.300000000000;     BAS[ATNO][ 14].d[ 17] =         0.002083085062;
  BAS[ATNO][ 14].a[ 18] =      2884.200000000000;     BAS[ATNO][ 14].d[ 18] =         0.009510349006;
  BAS[ATNO][ 14].a[ 19] =      1235.000000000000;     BAS[ATNO][ 14].d[ 19] =         0.036275803817;
  BAS[ATNO][ 14].a[ 20] =       565.950000000000;     BAS[ATNO][ 14].d[ 20] =         0.122745716226;
  BAS[ATNO][ 14].a[ 21] =       273.290000000000;     BAS[ATNO][ 14].d[ 21] =         0.348412317310;
  BAS[ATNO][ 14].a[ 22] =       137.780000000000;     BAS[ATNO][ 14].d[ 22] =         0.843441994120;
  BAS[ATNO][ 14].a[ 23] =        71.579000000000;     BAS[ATNO][ 14].d[ 23] =         1.624749511032;
  BAS[ATNO][ 14].a[ 24] =        38.347000000000;     BAS[ATNO][ 14].d[ 24] =         2.132192442344;
  BAS[ATNO][ 14].a[ 25] =        20.853000000000;     BAS[ATNO][ 14].d[ 25] =         1.449008746738;
  BAS[ATNO][ 14].a[ 26] =        11.399000000000;     BAS[ATNO][ 14].d[ 26] =        -1.847210491448;
  BAS[ATNO][ 14].a[ 27] =         5.944400000000;     BAS[ATNO][ 14].d[ 27] =        -5.422727955942;
  BAS[ATNO][ 14].a[ 28] =         3.115000000000;     BAS[ATNO][ 14].d[ 28] =        -5.683724589072;
  BAS[ATNO][ 14].a[ 29] =         1.606000000000;     BAS[ATNO][ 14].d[ 29] =        -2.602236465861;
  BAS[ATNO][ 14].a[ 30] =     97285.000000000000;     BAS[ATNO][ 14].d[ 30] =        -0.000030504952;
  BAS[ATNO][ 14].a[ 31] =     23066.000000000000;     BAS[ATNO][ 14].d[ 31] =        -0.000272795490;
  BAS[ATNO][ 14].a[ 32] =      7508.300000000000;     BAS[ATNO][ 14].d[ 32] =        -0.001595210861;
  BAS[ATNO][ 14].a[ 33] =      2884.200000000000;     BAS[ATNO][ 14].d[ 33] =        -0.007309813423;
  BAS[ATNO][ 14].a[ 34] =      1235.000000000000;     BAS[ATNO][ 14].d[ 34] =        -0.027812835270;
  BAS[ATNO][ 14].a[ 35] =       565.950000000000;     BAS[ATNO][ 14].d[ 35] =        -0.094531104563;
  BAS[ATNO][ 14].a[ 36] =       273.290000000000;     BAS[ATNO][ 14].d[ 36] =        -0.268220970416;
  BAS[ATNO][ 14].a[ 37] =       137.780000000000;     BAS[ATNO][ 14].d[ 37] =        -0.654694498722;
  BAS[ATNO][ 14].a[ 38] =        71.579000000000;     BAS[ATNO][ 14].d[ 38] =        -1.264842471188;
  BAS[ATNO][ 14].a[ 39] =        38.347000000000;     BAS[ATNO][ 14].d[ 39] =        -1.683521107575;
  BAS[ATNO][ 14].a[ 40] =        20.853000000000;     BAS[ATNO][ 14].d[ 40] =        -1.078400214266;
  BAS[ATNO][ 14].a[ 41] =        11.399000000000;     BAS[ATNO][ 14].d[ 41] =         1.808647676381;
  BAS[ATNO][ 14].a[ 42] =         5.944400000000;     BAS[ATNO][ 14].d[ 42] =         5.574431449996;
  BAS[ATNO][ 14].a[ 43] =         3.115000000000;     BAS[ATNO][ 14].d[ 43] =         6.115668074598;
  BAS[ATNO][ 14].a[ 44] =         1.606000000000;     BAS[ATNO][ 14].d[ 44] =         1.236343457961;
  BAS[ATNO][ 14].a[ 45] =         0.782220000000;     BAS[ATNO][ 14].d[ 45] =         2.338396920385;
  BAS[ATNO][ 14].a[ 46] =         0.365320000000;     BAS[ATNO][ 14].d[ 46] =        -3.150231901618;
  BAS[ATNO][ 14].a[ 47] =         0.160620000000;     BAS[ATNO][ 14].d[ 47] =         3.454189658041;
  BAS[ATNO][ 14].a[ 48] =         0.067693000000;     BAS[ATNO][ 14].d[ 48] =        -2.281269228211;

  // Basis function  16 L = d
  InitBFNGauss(BAS[ATNO][ 15]);
  BAS[ATNO][ 15].l  = 2;
  BAS[ATNO][ 15].ng = 13;
  BAS[ATNO][ 15].a[  0] =      2219.700000000000;     BAS[ATNO][ 15].d[  0] =        -0.000066178064;
  BAS[ATNO][ 15].a[  1] =       670.130000000000;     BAS[ATNO][ 15].d[  1] =        -0.000671521843;
  BAS[ATNO][ 15].a[  2] =       263.090000000000;     BAS[ATNO][ 15].d[  2] =        -0.003998034505;
  BAS[ATNO][ 15].a[  3] =       116.690000000000;     BAS[ATNO][ 15].d[  3] =        -0.018295579638;
  BAS[ATNO][ 15].a[  4] =        54.856000000000;     BAS[ATNO][ 15].d[  4] =        -0.064466059328;
  BAS[ATNO][ 15].a[  5] =        27.847000000000;     BAS[ATNO][ 15].d[  5] =        -0.153863951807;
  BAS[ATNO][ 15].a[  6] =        14.745000000000;     BAS[ATNO][ 15].d[  6] =        -0.299972588205;
  BAS[ATNO][ 15].a[  7] =         7.882700000000;     BAS[ATNO][ 15].d[  7] =        -0.429234119531;
  BAS[ATNO][ 15].a[  8] =         4.170300000000;     BAS[ATNO][ 15].d[  8] =        -0.470589527180;
  BAS[ATNO][ 15].a[  9] =         2.168200000000;     BAS[ATNO][ 15].d[  9] =         0.642364567532;
  BAS[ATNO][ 15].a[ 10] =         1.103200000000;     BAS[ATNO][ 15].d[ 10] =        -0.474394337446;
  BAS[ATNO][ 15].a[ 11] =         0.523790000000;     BAS[ATNO][ 15].d[ 11] =         0.217740298198;
  BAS[ATNO][ 15].a[ 12] =         0.218000000000;     BAS[ATNO][ 15].d[ 12] =        -0.059967700972;

  // Basis function  17 L = d
  InitBFNGauss(BAS[ATNO][ 16]);
  BAS[ATNO][ 16].l  = 2;
  BAS[ATNO][ 16].ng = 13;
  BAS[ATNO][ 16].a[  0] =      2219.700000000000;     BAS[ATNO][ 16].d[  0] =        -0.000029853414;
  BAS[ATNO][ 16].a[  1] =       670.130000000000;     BAS[ATNO][ 16].d[  1] =        -0.000302928465;
  BAS[ATNO][ 16].a[  2] =       263.090000000000;     BAS[ATNO][ 16].d[  2] =        -0.001803542905;
  BAS[ATNO][ 16].a[  3] =       116.690000000000;     BAS[ATNO][ 16].d[  3] =        -0.008253271152;
  BAS[ATNO][ 16].a[  4] =        54.856000000000;     BAS[ATNO][ 16].d[  4] =        -0.029081115672;
  BAS[ATNO][ 16].a[  5] =        27.847000000000;     BAS[ATNO][ 16].d[  5] =        -0.069409165487;
  BAS[ATNO][ 16].a[  6] =        14.745000000000;     BAS[ATNO][ 16].d[  6] =        -0.135319850893;
  BAS[ATNO][ 16].a[  7] =         7.882700000000;     BAS[ATNO][ 16].d[  7] =        -0.193630682726;
  BAS[ATNO][ 16].a[  8] =         4.170300000000;     BAS[ATNO][ 16].d[  8] =        -0.212286412671;
  BAS[ATNO][ 16].a[  9] =         2.168200000000;     BAS[ATNO][ 16].d[  9] =         1.794062214820;
  BAS[ATNO][ 16].a[ 10] =         1.103200000000;     BAS[ATNO][ 16].d[ 10] =        -0.877887366701;
  BAS[ATNO][ 16].a[ 11] =         0.523790000000;     BAS[ATNO][ 16].d[ 11] =         0.387836388755;
  BAS[ATNO][ 16].a[ 12] =         0.218000000000;     BAS[ATNO][ 16].d[ 12] =        -0.103453793629;

  // Basis function  18 L = d
  InitBFNGauss(BAS[ATNO][ 17]);
  BAS[ATNO][ 17].l  = 2;
  BAS[ATNO][ 17].ng = 13;
  BAS[ATNO][ 17].a[  0] =      2219.700000000000;     BAS[ATNO][ 17].d[  0] =         0.000015757746;
  BAS[ATNO][ 17].a[  1] =       670.130000000000;     BAS[ATNO][ 17].d[  1] =         0.000159896954;
  BAS[ATNO][ 17].a[  2] =       263.090000000000;     BAS[ATNO][ 17].d[  2] =         0.000951977282;
  BAS[ATNO][ 17].a[  3] =       116.690000000000;     BAS[ATNO][ 17].d[  3] =         0.004356384659;
  BAS[ATNO][ 17].a[  4] =        54.856000000000;     BAS[ATNO][ 17].d[  4] =         0.015350098628;
  BAS[ATNO][ 17].a[  5] =        27.847000000000;     BAS[ATNO][ 17].d[  5] =         0.036636749014;
  BAS[ATNO][ 17].a[  6] =        14.745000000000;     BAS[ATNO][ 17].d[  6] =         0.071426869621;
  BAS[ATNO][ 17].a[  7] =         7.882700000000;     BAS[ATNO][ 17].d[  7] =         0.102205503764;
  BAS[ATNO][ 17].a[  8] =         4.170300000000;     BAS[ATNO][ 17].d[  8] =         0.112052694562;
  BAS[ATNO][ 17].a[  9] =         2.168200000000;     BAS[ATNO][ 17].d[  9] =        -1.741556743064;
  BAS[ATNO][ 17].a[ 10] =         1.103200000000;     BAS[ATNO][ 17].d[ 10] =         2.370794064387;
  BAS[ATNO][ 17].a[ 11] =         0.523790000000;     BAS[ATNO][ 17].d[ 11] =        -0.478032775048;
  BAS[ATNO][ 17].a[ 12] =         0.218000000000;     BAS[ATNO][ 17].d[ 12] =         0.125985910388;

  // Basis function  19 L = d
  InitBFNGauss(BAS[ATNO][ 18]);
  BAS[ATNO][ 18].l  = 2;
  BAS[ATNO][ 18].ng = 13;
  BAS[ATNO][ 18].a[  0] =      2219.700000000000;     BAS[ATNO][ 18].d[  0] =         0.000008848751;
  BAS[ATNO][ 18].a[  1] =       670.130000000000;     BAS[ATNO][ 18].d[  1] =         0.000089790014;
  BAS[ATNO][ 18].a[  2] =       263.090000000000;     BAS[ATNO][ 18].d[  2] =         0.000534582122;
  BAS[ATNO][ 18].a[  3] =       116.690000000000;     BAS[ATNO][ 18].d[  3] =         0.002446324507;
  BAS[ATNO][ 18].a[  4] =        54.856000000000;     BAS[ATNO][ 18].d[  4] =         0.008619836264;
  BAS[ATNO][ 18].a[  5] =        27.847000000000;     BAS[ATNO][ 18].d[  5] =         0.020573338673;
  BAS[ATNO][ 18].a[  6] =        14.745000000000;     BAS[ATNO][ 18].d[  6] =         0.040109704562;
  BAS[ATNO][ 18].a[  7] =         7.882700000000;     BAS[ATNO][ 18].d[  7] =         0.057393423264;
  BAS[ATNO][ 18].a[  8] =         4.170300000000;     BAS[ATNO][ 18].d[  8] =         0.062923105802;
  BAS[ATNO][ 18].a[  9] =         2.168200000000;     BAS[ATNO][ 18].d[  9] =        -1.296429151145;
  BAS[ATNO][ 18].a[ 10] =         1.103200000000;     BAS[ATNO][ 18].d[ 10] =         2.754080416872;
  BAS[ATNO][ 18].a[ 11] =         0.523790000000;     BAS[ATNO][ 18].d[ 11] =        -2.337270984747;
  BAS[ATNO][ 18].a[ 12] =         0.218000000000;     BAS[ATNO][ 18].d[ 12] =         0.218126158875;

  // Basis function  20 L = d
  InitBFNGauss(BAS[ATNO][ 19]);
  BAS[ATNO][ 19].l  = 2;
  BAS[ATNO][ 19].ng = 13;
  BAS[ATNO][ 19].a[  0] =      2219.700000000000;     BAS[ATNO][ 19].d[  0] =        -0.000004255181;
  BAS[ATNO][ 19].a[  1] =       670.130000000000;     BAS[ATNO][ 19].d[  1] =        -0.000043178159;
  BAS[ATNO][ 19].a[  2] =       263.090000000000;     BAS[ATNO][ 19].d[  2] =        -0.000257069480;
  BAS[ATNO][ 19].a[  3] =       116.690000000000;     BAS[ATNO][ 19].d[  3] =        -0.001176386832;
  BAS[ATNO][ 19].a[  4] =        54.856000000000;     BAS[ATNO][ 19].d[  4] =        -0.004145100884;
  BAS[ATNO][ 19].a[  5] =        27.847000000000;     BAS[ATNO][ 19].d[  5] =        -0.009893292831;
  BAS[ATNO][ 19].a[  6] =        14.745000000000;     BAS[ATNO][ 19].d[  6] =        -0.019287926910;
  BAS[ATNO][ 19].a[  7] =         7.882700000000;     BAS[ATNO][ 19].d[  7] =        -0.027599309571;
  BAS[ATNO][ 19].a[  8] =         4.170300000000;     BAS[ATNO][ 19].d[  8] =        -0.030258419474;
  BAS[ATNO][ 19].a[  9] =         2.168200000000;     BAS[ATNO][ 19].d[  9] =         0.688693816662;
  BAS[ATNO][ 19].a[ 10] =         1.103200000000;     BAS[ATNO][ 19].d[ 10] =        -1.752854903219;
  BAS[ATNO][ 19].a[ 11] =         0.523790000000;     BAS[ATNO][ 19].d[ 11] =         2.348608540136;
  BAS[ATNO][ 19].a[ 12] =         0.218000000000;     BAS[ATNO][ 19].d[ 12] =        -1.794969416543;

  // Basis function  21 L = f
  InitBFNGauss(BAS[ATNO][ 20]);
  BAS[ATNO][ 20].l  = 3;
  BAS[ATNO][ 20].ng = 4;
  BAS[ATNO][ 20].a[  0] =         8.460000000000;     BAS[ATNO][ 20].d[  0] =         0.823862445175;
  BAS[ATNO][ 20].a[  1] =         2.490000000000;     BAS[ATNO][ 20].d[  1] =         0.317508705212;
  BAS[ATNO][ 20].a[  2] =         0.730000000000;     BAS[ATNO][ 20].d[  2] =        -0.049878283711;
  BAS[ATNO][ 20].a[  3] =         0.293000000000;     BAS[ATNO][ 20].d[  3] =         0.019011824501;

  // Basis function  22 L = f
  InitBFNGauss(BAS[ATNO][ 21]);
  BAS[ATNO][ 21].l  = 3;
  BAS[ATNO][ 21].ng = 4;
  BAS[ATNO][ 21].a[  0] =         8.460000000000;     BAS[ATNO][ 21].d[  0] =        -0.702408269217;
  BAS[ATNO][ 21].a[  1] =         2.490000000000;     BAS[ATNO][ 21].d[  1] =         0.963926754703;
  BAS[ATNO][ 21].a[  2] =         0.730000000000;     BAS[ATNO][ 21].d[  2] =         0.214287267123;
  BAS[ATNO][ 21].a[  3] =         0.293000000000;     BAS[ATNO][ 21].d[  3] =        -0.055369370493;

  // Basis function  23 L = f
  InitBFNGauss(BAS[ATNO][ 22]);
  BAS[ATNO][ 22].l  = 3;
  BAS[ATNO][ 22].ng = 4;
  BAS[ATNO][ 22].a[  0] =         8.460000000000;     BAS[ATNO][ 22].d[  0] =         0.351100455719;
  BAS[ATNO][ 22].a[  1] =         2.490000000000;     BAS[ATNO][ 22].d[  1] =        -0.783708385970;
  BAS[ATNO][ 22].a[  2] =         0.730000000000;     BAS[ATNO][ 22].d[  2] =         1.211195955730;
  BAS[ATNO][ 22].a[  3] =         0.293000000000;     BAS[ATNO][ 22].d[  3] =        -0.124063936273;

  // Basis function  24 L = f
  InitBFNGauss(BAS[ATNO][ 23]);
  BAS[ATNO][ 23].l  = 3;
  BAS[ATNO][ 23].ng = 4;
  BAS[ATNO][ 23].a[  0] =         8.460000000000;     BAS[ATNO][ 23].d[  0] =        -0.118623994606;
  BAS[ATNO][ 23].a[  1] =         2.490000000000;     BAS[ATNO][ 23].d[  1] =         0.317671142629;
  BAS[ATNO][ 23].a[  2] =         0.730000000000;     BAS[ATNO][ 23].d[  2] =        -0.890219701861;
  BAS[ATNO][ 23].a[  3] =         0.293000000000;     BAS[ATNO][ 23].d[  3] =         1.338092193544;

  // Basis function  25 L = g
  InitBFNGauss(BAS[ATNO][ 24]);
  BAS[ATNO][ 24].l  = 4;
  BAS[ATNO][ 24].ng = 2;
  BAS[ATNO][ 24].a[  0] =         2.250000000000;     BAS[ATNO][ 24].d[  0] =         0.994294043105;
  BAS[ATNO][ 24].a[  1] =         0.560000000000;     BAS[ATNO][ 24].d[  1] =         0.019041884940;

  // Basis function  26 L = g
  InitBFNGauss(BAS[ATNO][ 25]);
  BAS[ATNO][ 25].l  = 4;
  BAS[ATNO][ 25].ng = 2;
  BAS[ATNO][ 25].a[  0] =         2.250000000000;     BAS[ATNO][ 25].d[  0] =        -0.322259221597;
  BAS[ATNO][ 25].a[  1] =         0.560000000000;     BAS[ATNO][ 25].d[  1] =         1.045040217731;

  // Basis function  27 L = h
  InitBFNGauss(BAS[ATNO][ 26]);
  BAS[ATNO][ 26].l  = 5;
  BAS[ATNO][ 26].ng = 1;
  BAS[ATNO][ 26].a[  0] =         0.840000000000;     BAS[ATNO][ 26].d[  0] =         1.000000000000;

-------
TIMINGS
-------

Total SCF time: 0 days 0 hours 0 min 10 sec 

Total time                  ....      10.043 sec
Sum of individual times     ....       9.659 sec  ( 96.2%)

Fock matrix formation       ....       8.829 sec  ( 87.9%)
  XC integration            ....       0.049 sec  (  0.6% of F)
    Basis function eval.    ....       0.011 sec  ( 22.1% of XC)
    Density eval.           ....       0.004 sec  (  7.6% of XC)
    XC-Functional eval.     ....       0.002 sec  (  3.7% of XC)
    XC-Potential eval.      ....       0.008 sec  ( 17.0% of XC)
Diagonalization             ....       0.002 sec  (  0.0%)
Density matrix formation    ....       0.001 sec  (  0.0%)
Population analysis         ....       0.002 sec  (  0.0%)
Initial guess               ....       0.105 sec  (  1.0%)
Orbital Transformation      ....       0.000 sec  (  0.0%)
Orbital Orthonormalization  ....       0.000 sec  (  0.0%)
DIIS solution               ....       0.000 sec  (  0.0%)
SOSCF solution              ....       0.002 sec  (  0.0%)
Grid generation             ....       0.717 sec  (  7.1%)

-------------------------   --------------------
FINAL SINGLE POINT ENERGY     -1313.103199729131
-------------------------   --------------------


                            ***************************************
                            *     ORCA property calculations      *
                            ***************************************

                                    ---------------------
                                    Active property flags
                                    ---------------------
   (+) Dipole Moment


------------------------------------------------------------------------------
                       ORCA ELECTRIC PROPERTIES CALCULATION
------------------------------------------------------------------------------

Dipole Moment Calculation                       ... on
Quadrupole Moment Calculation                   ... off
Polarizability Calculation                      ... off
GBWName                                         ... Kr_pc-4_137.035989_.gbw
Electron density file                           ... Kr_pc-4_137.035989_.scfp
The origin for moment calculation is the CENTER OF MASS  = ( 0.000000,  0.000000  0.000000)

-------------
DIPOLE MOMENT
-------------
                                X             Y             Z
Electronic contribution:     -0.00000      -0.00000       0.00000
Nuclear contribution   :      0.00000       0.00000       0.00000
                        -----------------------------------------
Total Dipole Moment    :     -0.00000      -0.00000       0.00000
                        -----------------------------------------
Magnitude (a.u.)       :      0.00000
Magnitude (Debye)      :      0.00000



--------------------
Rotational spectrum 
--------------------
 
Rotational constants in cm-1:     0.000000     0.000000     0.000000 
Rotational constants in MHz :     0.000000     0.000000     0.000000 

 Dipole components along the rotational axes: 
x,y,z [a.u.] :    -0.000000    -0.000000     0.000000 
x,y,z [Debye]:    -0.000000    -0.000000     0.000000 

 

Timings for individual modules:

Sum of individual times         ...       13.114 sec (=   0.219 min)
GTO integral calculation        ...        2.266 sec (=   0.038 min)  17.3 %
Relativistic integrals          ...        0.489 sec (=   0.008 min)   3.7 %
SCF iterations                  ...       10.360 sec (=   0.173 min)  79.0 %
                             ****ORCA TERMINATED NORMALLY****
TOTAL RUN TIME: 0 days 0 hours 0 minutes 13 seconds 511 msec
