
                                 *****************
                                 * O   R   C   A *
                                 *****************

           --- An Ab Initio, DFT and Semiempirical electronic structure package ---

                  #######################################################
                  #                        -***-                        #
                  #          Department of theory and spectroscopy      #
                  #               Directorship: Frank Neese             #
                  #        Max Planck Institute fuer Kohlenforschung    #
                  #                Kaiser Wilhelm Platz 1               #
                  #                 D-45470 Muelheim/Ruhr               #
                  #                      Germany                        #
                  #                                                     #
                  #                  All rights reserved                #
                  #                        -***-                        #
                  #######################################################


                         Program Version 4.2.1 -  RELEASE  -


 With contributions from (in alphabetic order):
   Daniel Aravena         : Magnetic Suceptibility
   Michael Atanasov       : Ab Initio Ligand Field Theory (pilot matlab implementation)
   Alexander A. Auer      : GIAO ZORA, VPT2
   Ute Becker             : Parallelization
   Giovanni Bistoni       : ED, misc. LED, open-shell LED, HFLD
   Martin Brehm           : Molecular dynamics
   Dmytro Bykov           : SCF Hessian
   Vijay G. Chilkuri      : MRCI spin determinant printing, contributions to CSF-ICE
   Dipayan Datta          : RHF DLPNO-CCSD density
   Achintya Kumar Dutta   : EOM-CC, STEOM-CC
   Dmitry Ganyushin       : Spin-Orbit,Spin-Spin,Magnetic field MRCI
   Miquel Garcia          : C-PCM Hessian, Gaussian charge scheme
   Yang Guo               : DLPNO-NEVPT2, CIM, IAO-localization
   Andreas Hansen         : Spin unrestricted coupled pair/coupled cluster methods
   Benjamin Helmich-Paris : CASSCF linear response (MC-RPA)
   Lee Huntington         : MR-EOM, pCC
   Robert Izsak           : Overlap fitted RIJCOSX, COSX-SCS-MP3, EOM
   Christian Kollmar      : KDIIS, OOCD, Brueckner-CCSD(T), CCSD density
   Simone Kossmann        : Meta GGA functionals, TD-DFT gradient, OOMP2, MP2 Hessian
   Martin Krupicka        : AUTO-CI
   Lucas Lang             : DCDCAS
   Dagmar Lenk            : GEPOL surface, SMD
   Dimitrios Liakos       : Extrapolation schemes; Compound Job, initial MDCI parallelization
   Dimitrios Manganas     : Further ROCIS development; embedding schemes
   Dimitrios Pantazis     : SARC Basis sets
   Taras Petrenko         : DFT Hessian,TD-DFT gradient, ASA, ECA, R-Raman, ABS, FL, XAS/XES, NRVS
   Peter Pinski           : DLPNO-MP2, DLPNO-MP2 Gradient
   Christoph Reimann      : Effective Core Potentials
   Marius Retegan         : Local ZFS, SOC
   Christoph Riplinger    : Optimizer, TS searches, QM/MM, DLPNO-CCSD(T), (RO)-DLPNO pert. Triples
   Tobias Risthaus        : Range-separated hybrids, TD-DFT gradient, RPA, STAB
   Michael Roemelt        : Original ROCIS implementation
   Masaaki Saitow         : Open-shell DLPNO-CCSD energy and density
   Barbara Sandhoefer     : DKH picture change effects
   Avijit Sen             : IP-ROCIS
   Kantharuban Sivalingam : CASSCF convergence, NEVPT2, FIC-MRCI
   Bernardo de Souza      : ESD, SOC TD-DFT
   Georgi Stoychev        : AutoAux, RI-MP2 NMR
   Willem Van den Heuvel  : Paramagnetic NMR
   Boris Wezisla          : Elementary symmetry handling
   Frank Wennmohs         : Technical directorship


 We gratefully acknowledge several colleagues who have allowed us to
 interface, adapt or use parts of their codes:
   Stefan Grimme, W. Hujo, H. Kruse,             : VdW corrections, initial TS optimization,
                  C. Bannwarth                     DFT functionals, gCP, sTDA/sTD-DF
   Ed Valeev, F. Pavosevic, A. Kumar             : LibInt (2-el integral package), F12 methods
   Garnet Chan, S. Sharma, J. Yang, R. Olivares  : DMRG
   Ulf Ekstrom                                   : XCFun DFT Library
   Mihaly Kallay                                 : mrcc  (arbitrary order and MRCC methods)
   Andreas Klamt, Michael Diedenhofen            : otool_cosmo (COSMO solvation model)
   Jiri Pittner, Ondrej Demel                    : Mk-CCSD
   Frank Weinhold                                : gennbo (NPA and NBO analysis)
   Christopher J. Cramer and Donald G. Truhlar   : smd solvation model
   Lars Goerigk                                  : TD-DFT with DH, B97 family of functionals
   V. Asgeirsson, H. Jonsson                     : NEB implementation
   FAccTs GmbH                                   : IRC, NEB, NEB-TS, Multilevel, MM, QM/MM, CI optimization
   S Lehtola, MJT Oliveira, MAL Marques          : LibXC Library


 Your calculation uses the libint2 library for the computation of 2-el integrals
 For citations please refer to: http://libint.valeyev.net

 Your ORCA version has been built with support for libXC version: 4.2.3
 For citations please refer to: https://tddft.org/programs/libxc/

 This ORCA versions uses:
   CBLAS   interface :  Fast vector & matrix operations
   LAPACKE interface :  Fast linear algebra routines
   SCALAPACK package :  Parallel linear algebra routines


----- Orbital basis set information -----
Your calculation utilizes the basis: pc-4
   H, C-F              : F. Jensen, J. Chem. Phys. 115, 9113 (2001).
                         F. Jensen, J. Chem. Phys. 116, 7372 (2002).
                         F. Jensen, J. Chem. Phys. 117, 9234 (2002).
   Si-Cl               : F. Jensen, T. Helgaker, J. Chem. Phys. 121, 3463 (2004).
   He-B, Ne-Mg, Al, Ar : F. Jensen, J. Phys. Chem. A 111, 11198 (2007).
   K, Ca, Ga-Kr        : F. Jensen, J. Chem. Phys. 136, 094110 (2012).
   Sc-Zn               : F. Jensen, J. Chem. Phys. 138, 014107 (2013).

================================================================================
                                        WARNINGS
                       Please study these warnings very carefully!
================================================================================


INFO   : the flag for use of LIBINT has been found!

================================================================================
                                       INPUT FILE
================================================================================
NAME = Kr_pc-4_34.25899725_.inp
|  1> ! LDA pc-4 nori grid5 finalgrid6 verytightscf
|  2> %Pal NProcs 18 End
|  3> 
|  4> % REL
|  5>   Method ZORA
|  6>   ModelPot 1, 0, 0, 0
|  7>   velit 34.25899725
|  8> END
|  9> 
| 10> *xyz 34 1
| 11> Kr 0.0 0.0 0.0
| 12> **                         ****END OF INPUT****
================================================================================

                       ****************************
                       * Single Point Calculation *
                       ****************************

---------------------------------
CARTESIAN COORDINATES (ANGSTROEM)
---------------------------------
  Kr     0.000000    0.000000    0.000000

----------------------------
CARTESIAN COORDINATES (A.U.)
----------------------------
  NO LB      ZA    FRAG     MASS         X           Y           Z
   0 Kr   36.0000    0    83.800    0.000000    0.000000    0.000000

--------------------------------
INTERNAL COORDINATES (ANGSTROEM)
--------------------------------
 Kr     0   0   0     0.000000000000     0.00000000     0.00000000

---------------------------
INTERNAL COORDINATES (A.U.)
---------------------------
 Kr     0   0   0     0.000000000000     0.00000000     0.00000000

---------------------
BASIS SET INFORMATION
---------------------
There are 1 groups of distinct atoms

 Group   1 Type Kr  : 84s49p13d4f2g1h contracted to 8s7p5d4f2g1h pattern {202020201111/1515151111/91111/1111/11/1}

Atom   0Kr   basis set group =>   1


           ************************************************************
           *        Program running with 18 parallel MPI-processes    *
           *              working on a common directory               *
           ************************************************************
------------------------------------------------------------------------------
                           ORCA GTO INTEGRAL CALCULATION
------------------------------------------------------------------------------

                         BASIS SET STATISTICS AND STARTUP INFO

 # of primitive gaussian shells          ...  153
 # of primitive gaussian functions       ...  353
 # of contracted shells                  ...   27
 # of contracted basis functions         ...  111
 Highest angular momentum                ...    5
 Maximum contraction depth               ...   20
 Integral package used                   ... LIBINT
 Integral threshhold            Thresh   ...  1.000e-12
 Primitive cut-off              TCut     ...  1.000e-14


------------------------------ INTEGRAL EVALUATION ----------------------------


 * One electron integrals 
 Pre-screening matrix                    ... done
 Shell pair data                         ... done (   0.000 sec)



           ************************************************************
           *        Program running with 18 parallel MPI-processes    *
           *              working on a common directory               *
           ************************************************************
------------------------------------------------------------------------------
                          ORCA RELATIVISTIC HAMILTONIAN
------------------------------------------------------------------------------

Relativistic Method            ... ZORA(MP)
Treatment of potential         ... Van Wuellen
Nucleus model                  ... Point Nucleus
Speed of light used            ...  34.25899725000000


            *************************************************
            *         ZERO ORDER REGULAR APPROXIMATION      *
            *                     ZORA(MP)                  *
            *            Programmed by FN according to      *
            *                   C. van Wuellen              *
            *       J. Chem. Phys. (1998) vol 109, 392-399  *
            *************************************************

Terms included in model potential: +V(e,N)
Basis function cutoff value   ... 1.000000e-12
Loading the fitted atomic densities  (DKH4)  ... done
Calculating the cutoffs                      ... done
Number of fit functions                      ... 27
Setting up the integration grid ... done


           ************************************************************
           *        Program running with 18 parallel MPI-processes    *
           *              working on a common directory               *
           ************************************************************
-------------------------------------------------------------------------------
                                 ORCA SCF
-------------------------------------------------------------------------------

------------
SCF SETTINGS
------------
Hamiltonian:
 Density Functional     Method          .... DFT(GTOs)
 Exchange Functional    Exchange        .... Slater
   X-Alpha parameter    XAlpha          ....  0.666667
 Correlation Functional Correlation     .... VWN-5
 Gradients option       PostSCFGGA      .... off
   Density functional embedding theory  .... OFF

Relativistic Settings:
 Scalar relativistic method             .... ZORA
 Speed of light used       Velit        ....       34.2589973
Orbital energies will be scaled


General Settings:
 Integral files         IntName         .... Kr_pc-4_34.25899725_
 Hartree-Fock type      HFTyp           .... RHF
 Total Charge           Charge          ....   34
 Multiplicity           Mult            ....    1
 Number of Electrons    NEL             ....    2
 Basis Dimension        Dim             ....  111
 Nuclear Repulsion      ENuc            ....      0.0000000000 Eh

Convergence Acceleration:
 DIIS                   CNVDIIS         .... on
   Start iteration      DIISMaxIt       ....    12
   Startup error        DIISStart       ....  0.200000
   # of expansion vecs  DIISMaxEq       ....     5
   Bias factor          DIISBfac        ....   1.050
   Max. coefficient     DIISMaxC        ....  10.000
 Newton-Raphson         CNVNR           .... off
 SOSCF                  CNVSOSCF        .... on
   Start iteration      SOSCFMaxIt      ....   150
   Startup grad/error   SOSCFStart      ....  0.003300
 Level Shifting         CNVShift        .... on
   Level shift para.    LevelShift      ....    0.2500
   Turn off err/grad.   ShiftErr        ....    0.0010
 Zerner damping         CNVZerner       .... off
 Static damping         CNVDamp         .... on
   Fraction old density DampFac         ....    0.7000
   Max. Damping (<1)    DampMax         ....    0.9800
   Min. Damping (>=0)   DampMin         ....    0.0000
   Turn off err/grad.   DampErr         ....    0.1000
 Fernandez-Rico         CNVRico         .... off

SCF Procedure:
 Maximum # iterations   MaxIter         ....   125
 SCF integral mode      SCFMode         .... Direct
   Integral package                     .... LIBINT
 Reset frequency        DirectResetFreq ....    20
 Integral Threshold     Thresh          ....  1.000e-12 Eh
 Primitive CutOff       TCut            ....  1.000e-14 Eh

Convergence Tolerance:
 Convergence Check Mode ConvCheckMode   .... Total+1el-Energy
 Convergence forced     ConvForced      .... 0
 Energy Change          TolE            ....  1.000e-09 Eh
 1-El. energy change                    ....  1.000e-06 Eh
 Orbital Gradient       TolG            ....  2.000e-06
 Orbital Rotation angle TolX            ....  2.000e-06
 DIIS Error             TolErr          ....  1.000e-08


Diagonalization of the overlap matrix:
Smallest eigenvalue                        ... 1.976e-05
Time for diagonalization                   ...    0.003 sec
Threshold for overlap eigenvalues          ... 1.000e-08
Number of eigenvalues below threshold      ... 0
Time for construction of square roots      ...    0.002 sec
Total time needed                          ...    0.004 sec

-------------------
DFT GRID GENERATION
-------------------

General Integration Accuracy     IntAcc      ...  5.010
Radial Grid Type                 RadialGrid  ... Gauss-Chebyshev
Angular Grid (max. acc.)         AngularGrid ... Lebedev-434
Angular grid pruning method      GridPruning ... 3 (G Style)
Weight generation scheme         WeightScheme... Becke
Basis function cutoff            BFCut       ...    1.0000e-12
Integration weight cutoff        WCut        ...    1.0000e-14
Grids for H and He will be reduced by one unit

# of grid points (after initial pruning)     ...  16106 (   0.0 sec)
# of grid points (after weights+screening)   ...  16106 (   0.0 sec)
Grid point division into batches done        ...    0.2 sec
Reduced shell lists constructed in    0.2 sec

Total number of grid points                  ...    16106
Total number of batches                      ...      252
Average number of points per batch           ...       63
Average number of grid points per atom       ...    16106
Average number of shells per batch           ...     2.00 ( 7.41%)
Average number of basis functions per batch  ...     4.93 ( 4.44%)
Average number of large shells per batch     ...     0.93 (46.67%)
Average number of large basis fcns per batch ...     2.80 (56.76%)
Maximum spatial batch extension              ...  17.34, 17.34, 17.34 au
Average spatial batch extension              ...   0.86,  0.87,  0.87 au

Time for grid setup =    0.259 sec

------------------------------
INITIAL GUESS: MODEL POTENTIAL
------------------------------
Loading ZORA relativistic densities                ... done
Calculating cut-offs                               ... done
Setting up the integral package                    ... done
Initializing the effective Hamiltonian             ... done
Starting the Coulomb interaction                   ... done (   0.0 sec)
Reading the grid                                   ... done
Mapping shells                                     ... done
Starting the XC term evaluation                    ... done (   0.0 sec)
  promolecular density results
     # of electrons  =     36.000000565
     EX              =    -91.042004939
     EC              =     -3.295965580
     EX+EC           =    -94.337970520
Transforming the Hamiltonian                       ... done (   0.0 sec)
Diagonalizing the Hamiltonian                      ... done (   0.0 sec)
Back transforming the eigenvectors                 ... done (   0.0 sec)
Now organizing SCF variables                       ... done
                      ------------------
                      INITIAL GUESS DONE (   0.4 sec)
                      ------------------
--------------
SCF ITERATIONS
--------------
ITER       Energy         Delta-E        Max-DP      RMS-DP      [F,P]     Damp
               ***  Starting incremental Fock matrix formation  ***
  0  -1767.5818126171   0.00000000000084.27977404  1.32935817  1.1082927 0.7000
                      *** Initiating the SOSCF procedure ***
                      *** Re-Reading the Fockian *** 
                      *** Removing any level shift *** 
ITER      Energy       Delta-E        Grad      Rot      Max-DP    RMS-DP
  1  -1767.67682048  -0.0950078606  0.001085  0.001085 196.620585  3.101324
               *** Restarting incremental Fock matrix formation ***
  2  -1767.89820129  -0.2213808164  0.008654  0.000010  0.264138  0.004175
  3  -1767.89820160  -0.0000003039  0.000012  0.000000  0.000373  0.000006
                 **** Energy Check signals convergence ****
              ***Rediagonalizing the Fockian in SOSCF/NRSCF***

               *****************************************************
               *                     SUCCESS                       *
               *           SCF CONVERGED AFTER   4 CYCLES          *
               *****************************************************

Setting up the final grid:

General Integration Accuracy     IntAcc      ...  5.340
Radial Grid Type                 RadialGrid  ... Gauss-Chebyshev
Angular Grid (max. acc.)         AngularGrid ... Lebedev-590
Angular grid pruning method      GridPruning ... 3 (G Style)
Weight generation scheme         WeightScheme... Becke
Basis function cutoff            BFCut       ...    1.0000e-12
Integration weight cutoff        WCut        ...    1.0000e-14
Grids for H and He will be reduced by one unit

# of grid points (after initial pruning)     ...  24180 (   0.0 sec)
# of grid points (after weights+screening)   ...  24180 (   0.0 sec)
Grid point division into batches done        ...    0.4 sec
Reduced shell lists constructed in    0.4 sec

Total number of grid points                  ...    24180
Total number of batches                      ...      378
Average number of points per batch           ...       63
Average number of grid points per atom       ...    24180
Average number of shells per batch           ...     1.36 ( 5.05%)
Average number of basis functions per batch  ...     4.09 ( 3.69%)
Average number of large shells per batch     ...     0.95 (70.00%)
Average number of large basis fcns per batch ...     2.86 (70.00%)
Maximum spatial batch extension              ...  17.58, 17.58, 17.58 au
Average spatial batch extension              ...   0.77,  0.77,  0.77 au

Final grid set up in    0.5 sec
Final integration                            ... done (   0.0 sec)
Change in XC energy                          ...    -0.000081607
Integrated number of electrons               ...     1.999998067
Previous integrated no of electrons          ...     1.999992414

----------------
TOTAL SCF ENERGY
----------------

Total Energy       :        -1767.89828321 Eh          -48106.95800 eV

Components:
Nuclear Repulsion  :            0.00000000 Eh               0.00000 eV
Electronic Energy  :        -1767.89828321 Eh          -48106.95800 eV
One Electron Energy:        -1794.96293037 Eh          -48843.42449 eV
Two Electron Energy:           27.06464717 Eh             736.46649 eV

Virial components:
Potential Energy   :        -2870.89194779 Eh          -78120.94149 eV
Kinetic Energy     :         1102.99366458 Eh           30013.98349 eV
Virial Ratio       :            2.60281817


DFT components:
N(Alpha)           :        0.999999033286 electrons
N(Beta)            :        0.999999033286 electrons
N(Total)           :        1.999998066573 electrons
E(X)               :      -21.282085602742 Eh       
E(C)               :       -0.279000160689 Eh       
E(XC)              :      -21.561085763432 Eh       
DFET-embed. en.    :        0.000000000000 Eh       

---------------
SCF CONVERGENCE
---------------

  Last Energy change         ...   -1.8576e-10  Tolerance :   1.0000e-09
  Last MAX-Density change    ...    3.3988e-08  Tolerance :   1.0000e-08
  Last RMS-Density change    ...    5.3348e-10  Tolerance :   1.0000e-09
  Last Orbital Gradient      ...    1.8789e-09  Tolerance :   2.0000e-06
  Last Orbital Rotation      ...    2.1736e-12  Tolerance :   2.0000e-06

================================================================================
                                        WARNING
Number of found core electrons (2) does not match given number of chemical core electrons (18)
================================================================================
             **** THE GBW FILE WAS UPDATED (Kr_pc-4_34.25899725_.gbw) ****
             **** DENSITY FILE WAS UPDATED (Kr_pc-4_34.25899725_.scfp) ****
             **** ENERGY FILE WAS UPDATED (Kr_pc-4_34.25899725_.en.tmp) ****
             **** THE GBW FILE WAS UPDATED (Kr_pc-4_34.25899725_.gbw) ****
             **** DENSITY FILE WAS UPDATED (Kr_pc-4_34.25899725_.scfp) ****
----------------
ORBITAL ENERGIES
----------------

  NO   OCC          E(Eh)            E(eV) 
   0   2.0000    -863.192979    -23488.6751 
   1   0.0000    -187.802959     -5110.3783 
   2   0.0000    -167.707401     -4563.5504 
   3   0.0000    -167.707401     -4563.5504 
   4   0.0000    -167.707401     -4563.5504 
   5   0.0000     -74.543318     -2028.4268 
   6   0.0000     -64.201503     -1747.0117 
   7   0.0000     -64.201503     -1747.0117 
   8   0.0000     -64.201503     -1747.0117 
   9   0.0000     -64.201503     -1747.0117 
  10   0.0000     -64.201503     -1747.0117 
  11   0.0000     -63.253454     -1721.2140 
  12   0.0000     -63.253454     -1721.2140 
  13   0.0000     -63.253454     -1721.2140 
  14   0.0000     -37.793679     -1028.4183 
  15   0.0000     -36.432091      -991.3676 
  16   0.0000     -36.432091      -991.3676 
  17   0.0000     -36.432091      -991.3676 
  18   0.0000     -36.432091      -991.3676 
  19   0.0000     -36.432091      -991.3676 
  20   0.0000     -36.432091      -991.3676 
  21   0.0000     -36.432091      -991.3676 
  22   0.0000     -32.343955      -880.1238 
  23   0.0000     -32.343955      -880.1238 
  24   0.0000     -32.343955      -880.1238 
  25   0.0000     -32.343955      -880.1238 
  26   0.0000     -32.343955      -880.1238 
  27   0.0000     -29.852578      -812.3299 
  28   0.0000     -29.852578      -812.3299 
  29   0.0000     -29.852578      -812.3299 
  30   0.0000     -22.908374      -623.3685 
  31   0.0000     -22.908374      -623.3685 
  32   0.0000     -22.908374      -623.3685 
  33   0.0000     -22.908374      -623.3685 
  34   0.0000     -22.908374      -623.3685 
  35   0.0000     -22.908374      -623.3685 
  36   0.0000     -22.908374      -623.3685 
  37   0.0000     -22.233516      -605.0047 
  38   0.0000     -21.052632      -572.8712 
  39   0.0000     -21.052632      -572.8712 
  40   0.0000     -21.052632      -572.8712 
  41   0.0000     -21.052632      -572.8712 
  42   0.0000     -21.052632      -572.8712 
  43   0.0000     -21.052632      -572.8712 
  44   0.0000     -21.052632      -572.8712 
  45   0.0000     -21.052632      -572.8712 
  46   0.0000     -21.052632      -572.8712 
  47   0.0000     -19.735183      -537.0216 
  48   0.0000     -19.735183      -537.0216 
  49   0.0000     -19.735183      -537.0216 
  50   0.0000     -19.735183      -537.0216 
  51   0.0000     -19.735183      -537.0216 
  52   0.0000     -17.525827      -476.9020 
  53   0.0000     -17.525827      -476.9020 
  54   0.0000     -17.525827      -476.9020 
  55   0.0000     -15.400102      -419.0581 
  56   0.0000     -15.400102      -419.0581 
  57   0.0000     -15.400102      -419.0581 
  58   0.0000     -15.400102      -419.0581 
  59   0.0000     -15.400102      -419.0581 
  60   0.0000     -15.400102      -419.0581 
  61   0.0000     -15.400102      -419.0581 
  62   0.0000     -14.136471      -384.6729 
  63   0.0000     -13.311284      -362.2185 
  64   0.0000     -13.311284      -362.2185 
  65   0.0000     -13.311284      -362.2185 
  66   0.0000     -13.311284      -362.2185 
  67   0.0000     -13.311284      -362.2185 
  68   0.0000     -13.025538      -354.4429 
  69   0.0000     -13.025538      -354.4429 
  70   0.0000     -13.025538      -354.4429 
  71   0.0000     -13.025538      -354.4429 
  72   0.0000     -13.025538      -354.4429 
  73   0.0000     -13.025538      -354.4429 
  74   0.0000     -13.025538      -354.4429 
  75   0.0000     -13.025538      -354.4429 
  76   0.0000     -13.025538      -354.4429 
  77   0.0000     -13.025538      -354.4429 
  78   0.0000     -13.025538      -354.4429 
  79   0.0000     -12.741611      -346.7169 
  80   0.0000     -12.741611      -346.7169 
  81   0.0000     -12.741611      -346.7169 
  82   0.0000     -12.741611      -346.7169 
  83   0.0000     -12.741611      -346.7169 
  84   0.0000     -12.741611      -346.7169 
  85   0.0000     -12.741611      -346.7169 
  86   0.0000     -12.741611      -346.7169 
  87   0.0000     -12.741611      -346.7169 
  88   0.0000     -11.902307      -323.8783 
  89   0.0000     -11.902307      -323.8783 
  90   0.0000     -11.902307      -323.8783 
  91   0.0000     -10.129455      -275.6365 
  92   0.0000     -10.129455      -275.6365 
  93   0.0000     -10.129455      -275.6365 
  94   0.0000     -10.129455      -275.6365 
  95   0.0000     -10.129455      -275.6365 
  96   0.0000     -10.129455      -275.6365 
  97   0.0000     -10.129455      -275.6365 
  98   0.0000      -9.184526      -249.9237 
  99   0.0000      -9.184526      -249.9237 
 100   0.0000      -9.184526      -249.9237 
 101   0.0000      -9.184526      -249.9237 
 102   0.0000      -9.184526      -249.9237 
 103   0.0000      -9.093979      -247.4598 
 104   0.0000      -8.541656      -232.4303 
 105   0.0000      -8.541656      -232.4303 
 106   0.0000      -8.541656      -232.4303 
 107   0.0000      -5.842940      -158.9945 
 108   0.0000      -5.842940      -158.9945 
 109   0.0000      -5.842940      -158.9945 
 110   0.0000       0.709532        19.3073 

                    ********************************
                    * MULLIKEN POPULATION ANALYSIS *
                    ********************************

-----------------------
MULLIKEN ATOMIC CHARGES
-----------------------
   0 Kr:   34.000000
Sum of atomic charges:   34.0000000

--------------------------------
MULLIKEN REDUCED ORBITAL CHARGES
--------------------------------
  0 Krs       :     2.000000  s :     2.000000
      pz      :     0.000000  p :     0.000000
      px      :     0.000000
      py      :     0.000000
      dz2     :     0.000000  d :     0.000000
      dxz     :     0.000000
      dyz     :     0.000000
      dx2y2   :     0.000000
      dxy     :     0.000000
      f0      :     0.000000  f :     0.000000
      f+1     :     0.000000
      f-1     :     0.000000
      f+2     :     0.000000
      f-2     :     0.000000
      f+3     :     0.000000
      f-3     :     0.000000
      g0      :     0.000000  g :     0.000000
      g+1     :     0.000000
      g-1     :     0.000000
      g+2     :     0.000000
      g-2     :     0.000000
      g+3     :     0.000000
      g-3     :     0.000000
      g+4     :     0.000000
      g-4     :     0.000000
      h0      :     0.000000  h :     0.000000
      h+1     :     0.000000
      h-1     :     0.000000
      h+2     :     0.000000
      h-2     :     0.000000
      h+3     :     0.000000
      h-3     :     0.000000
      h+4     :     0.000000
      h-4     :     0.000000
      h+5     :     0.000000
      h-5     :     0.000000


                     *******************************
                     * LOEWDIN POPULATION ANALYSIS *
                     *******************************

----------------------
LOEWDIN ATOMIC CHARGES
----------------------
   0 Kr:   34.000000

-------------------------------
LOEWDIN REDUCED ORBITAL CHARGES
-------------------------------
  0 Krs       :     2.000000  s :     2.000000
      pz      :     0.000000  p :     0.000000
      px      :     0.000000
      py      :     0.000000
      dz2     :     0.000000  d :     0.000000
      dxz     :     0.000000
      dyz     :     0.000000
      dx2y2   :     0.000000
      dxy     :     0.000000
      f0      :     0.000000  f :     0.000000
      f+1     :     0.000000
      f-1     :     0.000000
      f+2     :     0.000000
      f-2     :     0.000000
      f+3     :     0.000000
      f-3     :     0.000000
      g0      :     0.000000  g :     0.000000
      g+1     :     0.000000
      g-1     :     0.000000
      g+2     :     0.000000
      g-2     :     0.000000
      g+3     :     0.000000
      g-3     :     0.000000
      g+4     :     0.000000
      g-4     :     0.000000
      h0      :     0.000000  h :     0.000000
      h+1     :     0.000000
      h-1     :     0.000000
      h+2     :     0.000000
      h-2     :     0.000000
      h+3     :     0.000000
      h-3     :     0.000000
      h+4     :     0.000000
      h-4     :     0.000000
      h+5     :     0.000000
      h-5     :     0.000000


                      *****************************
                      * MAYER POPULATION ANALYSIS *
                      *****************************

  NA   - Mulliken gross atomic population
  ZA   - Total nuclear charge
  QA   - Mulliken gross atomic charge
  VA   - Mayer's total valence
  BVA  - Mayer's bonded valence
  FA   - Mayer's free valence

  ATOM       NA         ZA         QA         VA         BVA        FA
  0 Kr     2.0000    36.0000    34.0000     0.0000     0.0000     0.0000

  Mayer bond orders larger than 0.100000


--------------------------
ATOM BASIS FOR ELEMENT Kr
--------------------------
 NewGTO Kr
 S 84
    1   81180000.000000000000         0.000001312390
    2   12174000.000000000000         0.000010180204
    3    2775000.000000000000         0.000053448908
    4     787190.000000000000         0.000225528203
    5     257190.000000000000         0.000821421837
    6      92980.000000000000         0.002683238853
    7      36316.000000000000         0.008035692936
    8      15086.000000000000         0.022336951069
    9       6592.600000000000         0.057782049426
   10       3007.200000000000         0.137943593494
   11       1422.900000000000         0.296780807979
   12        693.380000000000         0.550182929239
   13        347.150000000000         0.787843928801
   14        177.900000000000         0.745694278610
   15         92.353000000000         0.349802704388
   16         45.341000000000         0.043013127137
   17         23.694000000000        -0.002948899826
   18         12.583000000000         0.001343478738
   19          6.605000000000        -0.000624397827
   20          3.354100000000         0.000289044181
   21   81180000.000000000000        -0.000001766314
   22   12174000.000000000000        -0.000013698243
   23    2775000.000000000000        -0.000071957802
   24     787190.000000000000        -0.000303467473
   25     257190.000000000000        -0.001106630228
   26      92980.000000000000        -0.003615000883
   27      36316.000000000000        -0.010866135982
   28      15086.000000000000        -0.030335940442
   29       6592.600000000000        -0.079599423205
   30       3007.200000000000        -0.194738870366
   31       1422.900000000000        -0.442911454701
   32        693.380000000000        -0.909333743548
   33        347.150000000000        -1.569630357276
   34        177.900000000000        -2.037565600721
   35         92.353000000000        -0.986710564404
   36         45.341000000000         3.013181164741
   37         23.694000000000         6.003788086277
   38         12.583000000000         3.690768688158
   39          6.605000000000         0.583496156529
   40          3.354100000000        -0.000394857135
   41   81180000.000000000000         0.000002883489
   42   12174000.000000000000         0.000022378386
   43    2775000.000000000000         0.000117383095
   44     787190.000000000000         0.000495985262
   45     257190.000000000000         0.001804437559
   46      92980.000000000000         0.005912407094
   47      36316.000000000000         0.017715908534
   48      15086.000000000000         0.049697567772
   49       6592.600000000000         0.129995227221
   50       3007.200000000000         0.320901035160
   51       1422.900000000000         0.730086995586
   52        693.380000000000         1.532198543240
   53        347.150000000000         2.684340638103
   54        177.900000000000         3.722835637320
   55         92.353000000000         1.837346950084
   56         45.341000000000        -7.114696831719
   57         23.694000000000       -19.373288130495
   58         12.583000000000       -15.021099575197
   59          6.605000000000        11.947049067466
   60          3.354100000000        31.342276791715
   61   81180000.000000000000        -0.000001706970
   62   12174000.000000000000        -0.000013225545
   63    2775000.000000000000        -0.000069395945
   64     787190.000000000000        -0.000293126919
   65     257190.000000000000        -0.001066925364
   66      92980.000000000000        -0.003493944643
   67      36316.000000000000        -0.010477046088
   68      15086.000000000000        -0.029370284772
   69       6592.600000000000        -0.076910774780
   70       3007.200000000000        -0.189758116016
   71       1422.900000000000        -0.432709844398
   72        693.380000000000        -0.908579650825
   73        347.150000000000        -1.601220713489
   74        177.900000000000        -2.230579002246
   75         92.353000000000        -1.125420296069
   76         45.341000000000         4.474966416781
   77         23.694000000000        12.685698164330
   78         12.583000000000        10.624844671930
   79          6.605000000000        -9.799809384905
   80          3.354100000000       -34.694503239062
   81          1.662200000000         2.315607017611
   82          0.654060000000        -1.231099818396
   83          0.303170000000         0.648738507240
   84          0.129700000000        -0.170411378204
 S 84
    1   81180000.000000000000         0.000000993556
    2   12174000.000000000000         0.000007707009
    3    2775000.000000000000         0.000040463946
    4     787190.000000000000         0.000170738028
    5     257190.000000000000         0.000621864330
    6      92980.000000000000         0.002031368606
    7      36316.000000000000         0.006083489118
    8      15086.000000000000         0.016910377217
    9       6592.600000000000         0.043744387904
   10       3007.200000000000         0.104431360995
   11       1422.900000000000         0.224680413997
   12        693.380000000000         0.416520627318
   13        347.150000000000         0.596443891683
   14        177.900000000000         0.564534143478
   15         92.353000000000         0.264821087907
   16         45.341000000000         0.032563450710
   17         23.694000000000        -0.002232489487
   18         12.583000000000         0.001017091911
   19          6.605000000000        -0.000472705642
   20          3.354100000000         0.000218823335
   21   81180000.000000000000        -0.000002215380
   22   12174000.000000000000        -0.000017180864
   23    2775000.000000000000        -0.000090252250
   24     787190.000000000000        -0.000380620607
   25     257190.000000000000        -0.001387978306
   26      92980.000000000000        -0.004534073510
   27      36316.000000000000        -0.013628726772
   28      15086.000000000000        -0.038048506328
   29       6592.600000000000        -0.099836666126
   30       3007.200000000000        -0.244249000804
   31       1422.900000000000        -0.555516626197
   32        693.380000000000        -1.140521447213
   33        347.150000000000        -1.968690922748
   34        177.900000000000        -2.555593349764
   35         92.353000000000        -1.237570439764
   36         45.341000000000         3.779248012197
   37         23.694000000000         7.530182538051
   38         12.583000000000         4.629104413441
   39          6.605000000000         0.731843380508
   40          3.354100000000        -0.000495245045
   41   81180000.000000000000         0.000003785342
   42   12174000.000000000000         0.000029377544
   43    2775000.000000000000         0.000154096330
   44     787190.000000000000         0.000651111717
   45     257190.000000000000         0.002368801107
   46      92980.000000000000         0.007761596622
   47      36316.000000000000         0.023256811253
   48      15086.000000000000         0.065241189928
   49       6592.600000000000         0.170653086038
   50       3007.200000000000         0.421267404453
   51       1422.900000000000         0.958432101979
   52        693.380000000000         2.011415460519
   53        347.150000000000         3.523906405344
   54        177.900000000000         4.887205506699
   55         92.353000000000         2.412003377788
   56         45.341000000000        -9.339919599433
   57         23.694000000000       -25.432559924234
   58         12.583000000000       -19.719162410679
   59          6.605000000000        15.683658823400
   60          3.354100000000        41.145020261817
   61   81180000.000000000000        -0.000002221555
   62   12174000.000000000000        -0.000017212535
   63    2775000.000000000000        -0.000090316138
   64     787190.000000000000        -0.000381493345
   65     257190.000000000000        -0.001388562085
   66      92980.000000000000        -0.004547233785
   67      36316.000000000000        -0.013635470166
   68      15086.000000000000        -0.038224289404
   69       6592.600000000000        -0.100096397986
   70       3007.200000000000        -0.246962846961
   71       1422.900000000000        -0.563155122555
   72        693.380000000000        -1.182481265994
   73        347.150000000000        -2.083926813356
   74        177.900000000000        -2.903012278650
   75         92.353000000000        -1.464690977024
   76         45.341000000000         5.823995671698
   77         23.694000000000        16.509945398581
   78         12.583000000000        13.827824304949
   79          6.605000000000       -12.754072796421
   80          3.354100000000       -45.153553764854
   81          1.662200000000         2.593546273849
   82          0.654060000000        -1.320602287925
   83          0.303170000000         0.684067976445
   84          0.129700000000        -0.177911395618
 S 84
    1   81180000.000000000000         0.000001086744
    2   12174000.000000000000         0.000008429866
    3    2775000.000000000000         0.000044259147
    4     787190.000000000000         0.000186751914
    5     257190.000000000000         0.000680190318
    6      92980.000000000000         0.002221895021
    7      36316.000000000000         0.006654072597
    8      15086.000000000000         0.018496437731
    9       6592.600000000000         0.047847267778
   10       3007.200000000000         0.114226202112
   11       1422.900000000000         0.245753671457
   12        693.380000000000         0.455586989449
   13        347.150000000000         0.652385642308
   14        177.900000000000         0.617483010444
   15         92.353000000000         0.289659225185
   16         45.341000000000         0.035617646527
   17         23.694000000000        -0.002441879459
   18         12.583000000000         0.001112487140
   19          6.605000000000        -0.000517041717
   20          3.354100000000         0.000239347244
   21   81180000.000000000000        -0.000002463372
   22   12174000.000000000000        -0.000019104108
   23    2775000.000000000000        -0.000100355180
   24     787190.000000000000        -0.000423227673
   25     257190.000000000000        -0.001543350040
   26      92980.000000000000        -0.005041622412
   27      36316.000000000000        -0.015154340616
   28      15086.000000000000        -0.042307695683
   29       6592.600000000000        -0.111012486326
   30       3007.200000000000        -0.271590487885
   31       1422.900000000000        -0.617701734871
   32        693.380000000000        -1.268192603746
   33        347.150000000000        -2.189068231371
   34        177.900000000000        -2.841669126234
   35         92.353000000000        -1.376105361419
   36         45.341000000000         4.202300963740
   37         23.694000000000         8.373119000040
   38         12.583000000000         5.147291174085
   39          6.605000000000         0.813766689376
   40          3.354100000000        -0.000550683290
   41   81180000.000000000000         0.000003825257
   42   12174000.000000000000         0.000029687322
   43    2775000.000000000000         0.000155721228
   44     787190.000000000000         0.000657977490
   45     257190.000000000000         0.002393779389
   46      92980.000000000000         0.007843440281
   47      36316.000000000000         0.023502047203
   48      15086.000000000000         0.065929138290
   49       6592.600000000000         0.172452570553
   50       3007.200000000000         0.425709540183
   51       1422.900000000000         0.968538474892
   52        693.380000000000         2.032625220382
   53        347.150000000000         3.561064918889
   54        177.900000000000         4.938739591641
   55         92.353000000000         2.437437214524
   56         45.341000000000        -9.438406190457
   57         23.694000000000       -25.700738477732
   58         12.583000000000       -19.927094937614
   59          6.605000000000        15.849038201226
   60          3.354100000000        41.578881896285
   61   81180000.000000000000        -0.000002176173
   62   12174000.000000000000        -0.000016860919
   63    2775000.000000000000        -0.000088471168
   64     787190.000000000000        -0.000373700232
   65     257190.000000000000        -0.001360196659
   66      92980.000000000000        -0.004454343286
   67      36316.000000000000        -0.013356925957
   68      15086.000000000000        -0.037443446915
   69       6592.600000000000        -0.098051637397
   70       3007.200000000000        -0.241917911214
   71       1422.900000000000        -0.551651038261
   72        693.380000000000        -1.158325640633
   73        347.150000000000        -2.041356536065
   74        177.900000000000        -2.843709794087
   75         92.353000000000        -1.434770396015
   76         45.341000000000         5.705023590196
   77         23.694000000000        16.172681657281
   78         12.583000000000        13.545350702127
   79          6.605000000000       -12.493533696848
   80          3.354100000000       -44.231160861178
   81          1.662200000000         1.440908959967
   82          0.654060000000        -0.638602296077
   83          0.303170000000         0.312745746486
   84          0.129700000000        -0.078832488402
 S 84
    1   81180000.000000000000         0.000000945503
    2   12174000.000000000000         0.000007334261
    3    2775000.000000000000         0.000038506914
    4     787190.000000000000         0.000162480309
    5     257190.000000000000         0.000591787955
    6      92980.000000000000         0.001933121767
    7      36316.000000000000         0.005789262073
    8      15086.000000000000         0.016092509344
    9       6592.600000000000         0.041628697105
   10       3007.200000000000         0.099380553791
   11       1422.900000000000         0.213813779273
   12        693.380000000000         0.396375669280
   13        347.150000000000         0.567596971790
   14        177.900000000000         0.537230533800
   15         92.353000000000         0.252013055475
   16         45.341000000000         0.030988524272
   17         23.694000000000        -0.002124515465
   18         12.583000000000         0.000967900412
   19          6.605000000000        -0.000449843304
   20          3.354100000000         0.000208239977
   21   81180000.000000000000        -0.000002068281
   22   12174000.000000000000        -0.000016040073
   23    2775000.000000000000        -0.000084259594
   24     787190.000000000000        -0.000355347791
   25     257190.000000000000        -0.001295817979
   26      92980.000000000000        -0.004233015708
   27      36316.000000000000        -0.012723793380
   28      15086.000000000000        -0.035522124776
   29       6592.600000000000        -0.093207614532
   30       3007.200000000000        -0.228031119229
   31       1422.900000000000        -0.518630895541
   32        693.380000000000        -1.064792000198
   33        347.150000000000        -1.837971877274
   34        177.900000000000        -2.385904588851
   35         92.353000000000        -1.155397039803
   36         45.341000000000         3.528309844577
   37         23.694000000000         7.030186189082
   38         12.583000000000         4.321736657877
   39          6.605000000000         0.683249735345
   40          3.354100000000        -0.000462361285
   41   81180000.000000000000         0.000003064922
   42   12174000.000000000000         0.000023786462
   43    2775000.000000000000         0.000124768990
   44     787190.000000000000         0.000527193292
   45     257190.000000000000         0.001917975091
   46      92980.000000000000         0.006284423350
   47      36316.000000000000         0.018830616277
   48      15086.000000000000         0.052824602636
   49       6592.600000000000         0.138174694062
   50       3007.200000000000         0.341092540896
   51       1422.900000000000         0.776025008070
   52        693.380000000000         1.628606445631
   53        347.150000000000         2.853242802490
   54        177.900000000000         3.957081242320
   55         92.353000000000         1.952955182583
   56         45.341000000000        -7.562362704214
   57         23.694000000000       -20.592280329202
   58         12.583000000000       -15.966246474104
   59          6.605000000000        12.698772755914
   60          3.354100000000        33.314373146318
   61   81180000.000000000000        -0.000001723629
   62   12174000.000000000000        -0.000013354619
   63    2775000.000000000000        -0.000070073215
   64     787190.000000000000        -0.000295987693
   65     257190.000000000000        -0.001077338027
   66      92980.000000000000        -0.003528043815
   67      36316.000000000000        -0.010579296876
   68      15086.000000000000        -0.029656924224
   69       6592.600000000000        -0.077661385901
   70       3007.200000000000        -0.191610061371
   71       1422.900000000000        -0.436932878456
   72        693.380000000000        -0.917446938823
   73        347.150000000000        -1.616847835670
   74        177.900000000000        -2.252348350037
   75         92.353000000000        -1.136403841512
   76         45.341000000000         4.518639875638
   77         23.694000000000        12.809504303921
   78         12.583000000000        10.728537900757
   79          6.605000000000        -9.895450677402
   80          3.354100000000       -35.033104430371
   81          1.662200000000        -1.217206496672
   82          0.654060000000         0.451240811505
   83          0.303170000000        -0.239478541512
   84          0.129700000000         0.062525842707
 S 84
    1   81180000.000000000000         0.000000758275
    2   12174000.000000000000         0.000005881936
    3    2775000.000000000000         0.000030881803
    4     787190.000000000000         0.000130306078
    5     257190.000000000000         0.000474602539
    6      92980.000000000000         0.001550326414
    7      36316.000000000000         0.004642876650
    8      15086.000000000000         0.012905882464
    9       6592.600000000000         0.033385413082
   10       3007.200000000000         0.079701289528
   11       1422.900000000000         0.171474531757
   12        693.380000000000         0.317885650404
   13        347.150000000000         0.455201836360
   14        177.900000000000         0.430848538115
   15         92.353000000000         0.202109615344
   16         45.341000000000         0.024852199458
   17         23.694000000000        -0.001703820473
   18         12.583000000000         0.000776237483
   19          6.605000000000        -0.000360765663
   20          3.354100000000         0.000167004450
   21   81180000.000000000000        -0.000001647877
   22   12174000.000000000000        -0.000012779728
   23    2775000.000000000000        -0.000067132782
   24     787190.000000000000        -0.000283118930
   25     257190.000000000000        -0.001032426845
   26      92980.000000000000        -0.003372602577
   27      36316.000000000000        -0.010137524001
   28      15086.000000000000        -0.028301810769
   29       6592.600000000000        -0.074262006716
   30       3007.200000000000        -0.181680955924
   31       1422.900000000000        -0.413212710581
   32        693.380000000000        -0.848359772606
   33        347.150000000000        -1.464381215833
   34        177.900000000000        -1.900939783619
   35         92.353000000000        -0.920548210143
   36         45.341000000000         2.811136951507
   37         23.694000000000         5.601213340853
   38         12.583000000000         3.443289889156
   39          6.605000000000         0.544370722171
   40          3.354100000000        -0.000368380599
   41   81180000.000000000000         0.000002469119
   42   12174000.000000000000         0.000019162510
   43    2775000.000000000000         0.000100514612
   44     787190.000000000000         0.000424709930
   45     257190.000000000000         0.001545131699
   46      92980.000000000000         0.005062767383
   47      36316.000000000000         0.015170052138
   48      15086.000000000000         0.042555801912
   49       6592.600000000000         0.111314323560
   50       3007.200000000000         0.274786101167
   51       1422.900000000000         0.625170183481
   52        693.380000000000         1.312014664276
   53        347.150000000000         2.298588715309
   54        177.900000000000         3.187847273713
   55         92.353000000000         1.573311861253
   56         45.341000000000        -6.092282632874
   57         23.694000000000       -16.589258771067
   58         12.583000000000       -12.862499447715
   59          6.605000000000        10.230203938321
   60          3.354100000000        26.838249484027
   61   81180000.000000000000        -0.000001409026
   62   12174000.000000000000        -0.000010917091
   63    2775000.000000000000        -0.000057283226
   64     787190.000000000000        -0.000241963065
   65     257190.000000000000        -0.000880698818
   66      92980.000000000000        -0.002884093886
   67      36316.000000000000        -0.008648329510
   68      15086.000000000000        -0.024243846823
   69       6592.600000000000        -0.063486379423
   70       3007.200000000000        -0.156636775359
   71       1422.900000000000        -0.357182481127
   72        693.380000000000        -0.749991566370
   73        347.150000000000        -1.321735557168
   74        177.900000000000        -1.841242469263
   75         92.353000000000        -0.928983749424
   76         45.341000000000         3.693883160743
   77         23.694000000000        10.471472289886
   78         12.583000000000         8.770330582143
   79          6.605000000000        -8.089301124059
   80          3.354100000000       -28.638749288605
   81          1.662200000000        -1.956011239479
   82          0.654060000000         3.350912336534
   83          0.303170000000        -1.219118963165
   84          0.129700000000         0.282382560403
 S 84
    1   81180000.000000000000         0.000000597075
    2   12174000.000000000000         0.000004631506
    3    2775000.000000000000         0.000024316698
    4     787190.000000000000         0.000102604551
    5     257190.000000000000         0.000373707668
    6      92980.000000000000         0.001220745407
    7      36316.000000000000         0.003655856144
    8      15086.000000000000         0.010162244930
    9       6592.600000000000         0.026288070247
   10       3007.200000000000         0.062757740715
   11       1422.900000000000         0.135021080172
   12        693.380000000000         0.250306931583
   13        347.150000000000         0.358431325118
   14        177.900000000000         0.339255249224
   15         92.353000000000         0.159143508352
   16         45.341000000000         0.019568916626
   17         23.694000000000        -0.001341608450
   18         12.583000000000         0.000611218601
   19          6.605000000000        -0.000284071162
   20          3.354100000000         0.000131501285
   21   81180000.000000000000        -0.000001306233
   22   12174000.000000000000        -0.000010130186
   23    2775000.000000000000        -0.000053214556
   24     787190.000000000000        -0.000224421625
   25     257190.000000000000        -0.000818380146
   26      92980.000000000000        -0.002673381655
   27      36316.000000000000        -0.008035773582
   28      15086.000000000000        -0.022434170638
   29       6592.600000000000        -0.058865722204
   30       3007.200000000000        -0.144014162210
   31       1422.900000000000        -0.327543864056
   32        693.380000000000        -0.672474565553
   33        347.150000000000        -1.160780076708
   34        177.900000000000        -1.506829645170
   35         92.353000000000        -0.729696618906
   36         45.341000000000         2.228321239666
   37         23.694000000000         4.439948273822
   38         12.583000000000         2.729413801850
   39          6.605000000000         0.431509692836
   40          3.354100000000        -0.000292006518
   41   81180000.000000000000         0.000002019336
   42   12174000.000000000000         0.000015671806
   43    2775000.000000000000         0.000082204549
   44     787190.000000000000         0.000347343413
   45     257190.000000000000         0.001263665576
   46      92980.000000000000         0.004140517512
   47      36316.000000000000         0.012406627005
   48      15086.000000000000         0.034803701162
   49       6592.600000000000         0.091036950973
   50       3007.200000000000         0.224730187634
   51       1422.900000000000         0.511287186798
   52        693.380000000000         1.073013883997
   53        347.150000000000         1.879870455934
   54        177.900000000000         2.607138836091
   55         92.353000000000         1.286712349295
   56         45.341000000000        -4.982492976870
   57         23.694000000000       -13.567306426708
   58         12.583000000000       -10.519425480593
   59          6.605000000000         8.366637325653
   60          3.354100000000        21.949308268149
   61   81180000.000000000000        -0.000001177816
   62   12174000.000000000000        -0.000009125680
   63    2775000.000000000000        -0.000047883489
   64     787190.000000000000        -0.000202258785
   65     257190.000000000000        -0.000736182907
   66      92980.000000000000        -0.002410836234
   67      36316.000000000000        -0.007229205070
   68      15086.000000000000        -0.020265617790
   69       6592.600000000000        -0.053068752235
   70       3007.200000000000        -0.130933883740
   71       1422.900000000000        -0.298571579700
   72        693.380000000000        -0.626923711448
   73        347.150000000000        -1.104848905252
   74        177.900000000000        -1.539108723705
   75         92.353000000000        -0.776544652205
   76         45.341000000000         3.087745308918
   77         23.694000000000         8.753184124549
   78         12.583000000000         7.331186703594
   79          6.605000000000        -6.761908948201
   80          3.354100000000       -23.939350521139
   81          1.662200000000        -0.805766362603
   82          0.654060000000         4.475093730403
   83          0.303170000000        -4.280717220251
   84          0.129700000000         0.776211091588
 S 84
    1   81180000.000000000000         0.000000454862
    2   12174000.000000000000         0.000003528359
    3    2775000.000000000000         0.000018524867
    4     787190.000000000000         0.000078165862
    5     257190.000000000000         0.000284696748
    6      92980.000000000000         0.000929984254
    7      36316.000000000000         0.002785092312
    8      15086.000000000000         0.007741768034
    9       6592.600000000000         0.020026691279
   10       3007.200000000000         0.047809895775
   11       1422.900000000000         0.102861315544
   12        693.380000000000         0.190688003974
   13        347.150000000000         0.273058974101
   14        177.900000000000         0.258450318987
   15         92.353000000000         0.121238184501
   16         45.341000000000         0.014907927750
   17         23.694000000000        -0.001022059740
   18         12.583000000000         0.000465636546
   19          6.605000000000        -0.000216410159
   20          3.354100000000         0.000100179876
   21   81180000.000000000000        -0.000001003327
   22   12174000.000000000000        -0.000007781073
   23    2775000.000000000000        -0.000040874504
   24     787190.000000000000        -0.000172379954
   25     257190.000000000000        -0.000628604002
   26      92980.000000000000        -0.002053444740
   27      36316.000000000000        -0.006172338681
   28      15086.000000000000        -0.017231856747
   29       6592.600000000000        -0.045215208028
   30       3007.200000000000        -0.110618371090
   31       1422.900000000000        -0.251588928107
   32        693.380000000000        -0.516532818021
   33        347.150000000000        -0.891603987478
   34        177.900000000000        -1.157407287600
   35         92.353000000000        -0.560485511528
   36         45.341000000000         1.711590457601
   37         23.694000000000         3.410357969239
   38         12.583000000000         2.096483458010
   39          6.605000000000         0.331445870314
   40          3.354100000000        -0.000224292423
   41   81180000.000000000000         0.000001594014
   42   12174000.000000000000         0.000012370934
   43    2775000.000000000000         0.000064890224
   44     787190.000000000000         0.000274184242
   45     257190.000000000000         0.000997506140
   46      92980.000000000000         0.003268421424
   47      36316.000000000000         0.009793482431
   48      15086.000000000000         0.027473175080
   49       6592.600000000000         0.071862302264
   50       3007.200000000000         0.177396414302
   51       1422.900000000000         0.403597374128
   52        693.380000000000         0.847010441815
   53        347.150000000000         1.483922928848
   54        177.900000000000         2.058010479048
   55         92.353000000000         1.015698689196
   56         45.341000000000        -3.933055891092
   57         23.694000000000       -10.709693865205
   58         12.583000000000        -8.303772539051
   59          6.605000000000         6.604415174301
   60          3.354100000000        17.326237405690
   61   81180000.000000000000        -0.000000945518
   62   12174000.000000000000        -0.000007325845
   63    2775000.000000000000        -0.000038439548
   64     787190.000000000000        -0.000162367792
   65     257190.000000000000        -0.000590987398
   66      92980.000000000000        -0.001935353046
   67      36316.000000000000        -0.005803407075
   68      15086.000000000000        -0.016268680792
   69       6592.600000000000        -0.042602135255
   70       3007.200000000000        -0.105110122052
   71       1422.900000000000        -0.239685055441
   72        693.380000000000        -0.503277119299
   73        347.150000000000        -0.886942325106
   74        177.900000000000        -1.235554168091
   75         92.353000000000        -0.623388696954
   76         45.341000000000         2.478757041447
   77         23.694000000000         7.026815560580
   78         12.583000000000         5.885275126551
   79          6.605000000000        -5.428274595891
   80          3.354100000000       -19.217852424735
   81          1.662200000000         0.413847584625
   82          0.654060000000         2.594935436056
   83          0.303170000000        -4.715279246920
   84          0.129700000000         3.024271006846
 S 84
    1   81180000.000000000000         0.000003116911
    2   12174000.000000000000         0.000024177859
    3    2775000.000000000000         0.000126940494
    4     787190.000000000000         0.000535626690
    5     257190.000000000000         0.001950866694
    6      92980.000000000000         0.006372659057
    7      36316.000000000000         0.019084671243
    8      15086.000000000000         0.053049982261
    9       6592.600000000000         0.137231652053
   10       3007.200000000000         0.327614326824
   11       1422.900000000000         0.704850744843
   12        693.380000000000         1.306677645750
   13        347.150000000000         1.871119577498
   14        177.900000000000         1.771014680102
   15         92.353000000000         0.830777092409
   16         45.341000000000         0.102155644453
   17         23.694000000000        -0.007003600579
   18         12.583000000000         0.003190745371
   19          6.605000000000        -0.001482937110
   20          3.354100000000         0.000686476351
   21   81180000.000000000000        -0.000006951531
   22   12174000.000000000000        -0.000053910992
   23    2775000.000000000000        -0.000283198108
   24     787190.000000000000        -0.001194330735
   25     257190.000000000000        -0.004355269056
   26      92980.000000000000        -0.014227246906
   27      36316.000000000000        -0.042764913355
   28      15086.000000000000        -0.119390542026
   29       6592.600000000000        -0.313272578430
   30       3007.200000000000        -0.766416961122
   31       1422.900000000000        -1.743128377601
   32        693.380000000000        -3.578786315560
   33        347.150000000000        -6.177458697609
   34        177.900000000000        -8.019071040371
   35         92.353000000000        -3.883311589790
   36         45.341000000000        11.858716994936
   37         23.694000000000        23.628590489631
   38         12.583000000000        14.525439717596
   39          6.605000000000         2.296415452506
   40          3.354100000000        -0.001554005139
   41   81180000.000000000000         0.000011415460
   42   12174000.000000000000         0.000088593899
   43    2775000.000000000000         0.000464708502
   44     787190.000000000000         0.001963558447
   45     257190.000000000000         0.007143596564
   46      92980.000000000000         0.023406656983
   47      36316.000000000000         0.070135595807
   48      15086.000000000000         0.196747940938
   49       6592.600000000000         0.514638732520
   50       3007.200000000000         1.270416657050
   51       1422.900000000000         2.890344930882
   52        693.380000000000         6.065828208600
   53        347.150000000000        10.627049109228
   54        177.900000000000        14.738351974337
   55         92.353000000000         7.273881709375
   56         45.341000000000       -28.166407629016
   57         23.694000000000       -76.697003892721
   58         12.583000000000       -59.467103613579
   59          6.605000000000        47.297230220390
   60          3.354100000000       124.081090876724
   61   81180000.000000000000        -0.000006900368
   62   12174000.000000000000        -0.000053463825
   63    2775000.000000000000        -0.000280530804
   64     787190.000000000000        -0.001184955832
   65     257190.000000000000        -0.004313010337
   66      92980.000000000000        -0.014124155145
   67      36316.000000000000        -0.042353110745
   68      15086.000000000000        -0.118728400458
   69       6592.600000000000        -0.310909251937
   70       3007.200000000000        -0.767090879892
   71       1422.900000000000        -1.749215170588
   72        693.380000000000        -3.672903053828
   73        347.150000000000        -6.472881538884
   74        177.900000000000        -9.017041512782
   75         92.353000000000        -4.549474158397
   76         45.341000000000        18.089903073503
   77         23.694000000000        51.281513387882
   78         12.583000000000        42.950581610067
   79          6.605000000000       -39.615403871406
   80          3.354100000000      -140.251376730887
   81          1.662200000000        14.141729562912
   82          0.654060000000        -9.522893191865
   83          0.303170000000         5.804184641165
   84          0.129700000000        -1.717809304550
 P 49
    1      97285.000000000000         0.000008283997
    2      23066.000000000000         0.000073915145
    3       7508.300000000000         0.000432405789
    4       2884.200000000000         0.001972685825
    5       1235.000000000000         0.007467221580
    6        565.950000000000         0.025045222256
    7        273.290000000000         0.069413481483
    8        137.780000000000         0.162698461687
    9         71.579000000000         0.294608381262
   10         38.347000000000         0.377403065847
   11         20.853000000000         0.301711106961
   12         11.399000000000         0.118829129313
   13          5.944400000000         0.014121667918
   14          3.115000000000        -0.000436844049
   15          1.606000000000         0.000202212563
   16      97285.000000000000        -0.000004735441
   17      23066.000000000000        -0.000042192626
   18       7508.300000000000        -0.000247552227
   19       2884.200000000000        -0.001130202564
   20       1235.000000000000        -0.004310988636
   21        565.950000000000        -0.014587006546
   22        273.290000000000        -0.041405051920
   23        137.780000000000        -0.100233998119
   24         71.579000000000        -0.193083982738
   25         38.347000000000        -0.253388110558
   26         20.853000000000        -0.172199085423
   27         11.399000000000         0.219521074616
   28          5.944400000000         0.644432821137
   29          3.115000000000         0.675449460357
   30          1.606000000000         0.309247780930
   31      97285.000000000000         0.000004104464
   32      23066.000000000000         0.000036704835
   33       7508.300000000000         0.000214636799
   34       2884.200000000000         0.000983540793
   35       1235.000000000000         0.003742237521
   36        565.950000000000         0.012719229917
   37        273.290000000000         0.036089329612
   38        137.780000000000         0.088089628201
   39         71.579000000000         0.170185488403
   40         38.347000000000         0.226519008062
   41         20.853000000000         0.145099545073
   42         11.399000000000        -0.243354880283
   43          5.944400000000        -0.750043867513
   44          3.115000000000        -0.822867654978
   45          1.606000000000        -0.166350925130
   46          0.782220000000        -0.019170268159
   47          0.365320000000        -0.029006445513
   48          0.160620000000         0.022616465798
   49          0.067693000000        -0.007730402357
 P 49
    1      97285.000000000000        -0.000004913170
    2      23066.000000000000        -0.000043838457
    3       7508.300000000000        -0.000256456270
    4       2884.200000000000        -0.001169983523
    5       1235.000000000000        -0.004428746888
    6        565.950000000000        -0.014854112596
    7        273.290000000000        -0.041168557383
    8        137.780000000000        -0.096495101716
    9         71.579000000000        -0.174729775693
   10         38.347000000000        -0.223834613119
   11         20.853000000000        -0.178942343112
   12         11.399000000000        -0.070476566287
   13          5.944400000000        -0.008375443554
   14          3.115000000000         0.000259088565
   15          1.606000000000        -0.000119930586
   16      97285.000000000000         0.000022584151
   17      23066.000000000000         0.000201224054
   18       7508.300000000000         0.001180620108
   19       2884.200000000000         0.005390134794
   20       1235.000000000000         0.020559862966
   21        565.950000000000         0.069567999596
   22        273.290000000000         0.197467974405
   23        137.780000000000         0.478033564925
   24         71.579000000000         0.920851470857
   25         38.347000000000         1.208452461965
   26         20.853000000000         0.821247722593
   27         11.399000000000        -1.046934611448
   28          5.944400000000        -3.073413458740
   29          3.115000000000        -3.221337265994
   30          1.606000000000        -1.474857053863
   31      97285.000000000000        -0.000020158074
   32      23066.000000000000        -0.000180266850
   33       7508.300000000000        -0.001054136330
   34       2884.200000000000        -0.004830420906
   35       1235.000000000000        -0.018379087561
   36        565.950000000000        -0.062467397918
   37        273.290000000000        -0.177243947021
   38        137.780000000000        -0.432630740492
   39         71.579000000000        -0.835824550205
   40         38.347000000000        -1.112492902913
   41         20.853000000000        -0.712621053263
   42         11.399000000000         1.195178186237
   43          5.944400000000         3.683657661309
   44          3.115000000000         4.041313945484
   45          1.606000000000         0.816992027219
   46          0.782220000000         0.221725035887
   47          0.365320000000        -0.021999233470
   48          0.160620000000        -0.014175421746
   49          0.067693000000         0.006972197593
 P 49
    1      97285.000000000000        -0.000016071002
    2      23066.000000000000        -0.000143395807
    3       7508.300000000000        -0.000838869716
    4       2884.200000000000        -0.003827021840
    5       1235.000000000000        -0.014486452789
    6        565.950000000000        -0.048587875143
    7        273.290000000000        -0.134662553085
    8        137.780000000000        -0.315635950909
    9         71.579000000000        -0.571541953139
   10         38.347000000000        -0.732164117162
   11         20.853000000000        -0.585321281824
   12         11.399000000000        -0.230529193930
   13          5.944400000000        -0.027396116936
   14          3.115000000000         0.000847479966
   15          1.606000000000        -0.000392293534
   16      97285.000000000000         0.000069324580
   17      23066.000000000000         0.000617679755
   18       7508.300000000000         0.003624045564
   19       2884.200000000000         0.016545622046
   20       1235.000000000000         0.063110800560
   21        565.950000000000         0.213546761235
   22        273.290000000000         0.606150049254
   23        137.780000000000         1.467377531959
   24         71.579000000000         2.826656657092
   25         38.347000000000         3.709480089350
   26         20.853000000000         2.520911803537
   27         11.399000000000        -3.213682969128
   28          5.944400000000        -9.434186606725
   29          3.115000000000        -9.888255289624
   30          1.606000000000        -4.527238801802
   31      97285.000000000000        -0.000054494252
   32      23066.000000000000        -0.000487323700
   33       7508.300000000000        -0.002849695421
   34       2884.200000000000        -0.013058299910
   35       1235.000000000000        -0.049685036170
   36        565.950000000000        -0.168871001602
   37        273.290000000000        -0.479151747294
   38        137.780000000000        -1.169550660114
   39         71.579000000000        -2.259523105825
   40         38.347000000000        -3.007453440535
   41         20.853000000000        -1.926461402874
   42         11.399000000000         3.230980385439
   43          5.944400000000         9.958201870994
   44          3.115000000000        10.925070620948
   45          1.606000000000         2.208612276731
   46          0.782220000000         0.529939965554
   47          0.365320000000        -0.119032753826
   48          0.160620000000         0.015317078444
   49          0.067693000000        -0.000126876834
 P 49
    1      97285.000000000000        -0.000024932330
    2      23066.000000000000        -0.000222462261
    3       7508.300000000000        -0.001301410815
    4       2884.200000000000        -0.005937188480
    5       1235.000000000000        -0.022474081468
    6        565.950000000000        -0.075378554032
    7        273.290000000000        -0.208913612787
    8        137.780000000000        -0.489673226291
    9         71.579000000000        -0.886682240564
   10         38.347000000000        -1.135869232871
   11         20.853000000000        -0.908059299526
   12         11.399000000000        -0.357639786662
   13          5.944400000000        -0.042501954956
   14          3.115000000000         0.001314768637
   15          1.606000000000        -0.000608598735
   16      97285.000000000000         0.000104460507
   17      23066.000000000000         0.000930739718
   18       7508.300000000000         0.005460828397
   19       2884.200000000000         0.024931475372
   20       1235.000000000000         0.095097383797
   21        565.950000000000         0.321779127050
   22        273.290000000000         0.913366386745
   23        137.780000000000         2.211091652976
   24         71.579000000000         4.259297150325
   25         38.347000000000         5.589563887822
   26         20.853000000000         3.798590972867
   27         11.399000000000        -4.842480843265
   28          5.944400000000       -14.215735762898
   29          3.115000000000       -14.899941056199
   30          1.606000000000        -6.821789013170
   31      97285.000000000000        -0.000080603746
   32      23066.000000000000        -0.000720812090
   33       7508.300000000000        -0.004215052357
   34       2884.200000000000        -0.019314842357
   35       1235.000000000000        -0.073490320156
   36        565.950000000000        -0.249781119818
   37        273.290000000000        -0.708724759528
   38        137.780000000000        -1.729910232045
   39         71.579000000000        -3.342114432159
   40         38.347000000000        -4.448396000797
   41         20.853000000000        -2.849474936082
   42         11.399000000000         4.779020027883
   43          5.944400000000        14.729413523418
   44          3.115000000000        16.159532115653
   45          1.606000000000         3.266811012500
   46          0.782220000000         2.880514206341
   47          0.365320000000        -0.238903955141
   48          0.160620000000         0.060055325801
   49          0.067693000000        -0.011710657246
 P 49
    1      97285.000000000000        -0.000029018162
    2      23066.000000000000        -0.000258918683
    3       7508.300000000000        -0.001514681966
    4       2884.200000000000        -0.006910156435
    5       1235.000000000000        -0.026157063936
    6        565.950000000000        -0.087731356676
    7        273.290000000000        -0.243149724921
    8        137.780000000000        -0.569919349369
    9         71.579000000000        -1.031988964288
   10         38.347000000000        -1.322011944721
   11         20.853000000000        -1.056869229088
   12         11.399000000000        -0.416248680915
   13          5.944400000000        -0.049467042948
   14          3.115000000000         0.001530228826
   15          1.606000000000        -0.000708334000
   16      97285.000000000000         0.000120477943
   17      23066.000000000000         0.001073454555
   18       7508.300000000000         0.006298163711
   19       2884.200000000000         0.028754339455
   20       1235.000000000000         0.109679127058
   21        565.950000000000         0.371119081840
   22        273.290000000000         1.053417286386
   23        137.780000000000         2.550129064120
   24         71.579000000000         4.912395848064
   25         38.347000000000         6.446638838741
   26         20.853000000000         4.381047357117
   27         11.399000000000        -5.585001926190
   28          5.944400000000       -16.395503500737
   29          3.115000000000       -17.184621311354
   30          1.606000000000        -7.867807021190
   31      97285.000000000000        -0.000092479111
   32      23066.000000000000        -0.000827009468
   33       7508.300000000000        -0.004836056801
   34       2884.200000000000        -0.022160501656
   35       1235.000000000000        -0.084317662627
   36        565.950000000000        -0.286581418433
   37        273.290000000000        -0.813141309528
   38        137.780000000000        -1.984778226723
   39         71.579000000000        -3.834508770046
   40         38.347000000000        -5.103779006954
   41         20.853000000000        -3.269288605827
   42         11.399000000000         5.483113933146
   43          5.944400000000        16.899500744108
   44          3.115000000000        18.540318973240
   45          1.606000000000         3.748110883630
   46          0.782220000000         5.329484895883
   47          0.365320000000        -3.424602374612
   48          0.160620000000         0.462383027978
   49          0.067693000000        -0.098264950523
 P 49
    1      97285.000000000000        -0.000020842000
    2      23066.000000000000        -0.000185965714
    3       7508.300000000000        -0.001087904932
    4       2884.200000000000        -0.004963149649
    5       1235.000000000000        -0.018787045403
    6        565.950000000000        -0.063012155538
    7        273.290000000000        -0.174639819401
    8        137.780000000000        -0.409338782017
    9         71.579000000000        -0.741215588073
[...]
  BAS[ATNO][ 13].a[ 38] =        71.579000000000;     BAS[ATNO][ 13].d[ 38] =        -2.739499426416;
  BAS[ATNO][ 13].a[ 39] =        38.347000000000;     BAS[ATNO][ 13].d[ 39] =        -3.646307910762;
  BAS[ATNO][ 13].a[ 40] =        20.853000000000;     BAS[ATNO][ 13].d[ 40] =        -2.335687515026;
  BAS[ATNO][ 13].a[ 41] =        11.399000000000;     BAS[ATNO][ 13].d[ 41] =         3.917317282508;
  BAS[ATNO][ 13].a[ 42] =         5.944400000000;     BAS[ATNO][ 13].d[ 42] =        12.073560231981;
  BAS[ATNO][ 13].a[ 43] =         3.115000000000;     BAS[ATNO][ 13].d[ 43] =        13.245814845837;
  BAS[ATNO][ 13].a[ 44] =         1.606000000000;     BAS[ATNO][ 13].d[ 44] =         2.677773929234;
  BAS[ATNO][ 13].a[ 45] =         0.782220000000;     BAS[ATNO][ 13].d[ 45] =         4.670370337979;
  BAS[ATNO][ 13].a[ 46] =         0.365320000000;     BAS[ATNO][ 13].d[ 46] =        -5.070957138479;
  BAS[ATNO][ 13].a[ 47] =         0.160620000000;     BAS[ATNO][ 13].d[ 47] =         3.298964224682;
  BAS[ATNO][ 13].a[ 48] =         0.067693000000;     BAS[ATNO][ 13].d[ 48] =        -0.480173336046;

  // Basis function  15 L = p
  InitBFNGauss(BAS[ATNO][ 14]);
  BAS[ATNO][ 14].l  = 1;
  BAS[ATNO][ 14].ng = 49;
  BAS[ATNO][ 14].a[  0] =     97285.000000000000;     BAS[ATNO][ 14].d[  0] =        -0.000009304647;
  BAS[ATNO][ 14].a[  1] =     23066.000000000000;     BAS[ATNO][ 14].d[  1] =        -0.000083022036;
  BAS[ATNO][ 14].a[  2] =      7508.300000000000;     BAS[ATNO][ 14].d[  2] =        -0.000485681367;
  BAS[ATNO][ 14].a[  3] =      2884.200000000000;     BAS[ATNO][ 14].d[  3] =        -0.002215735249;
  BAS[ATNO][ 14].a[  4] =      1235.000000000000;     BAS[ATNO][ 14].d[  4] =        -0.008387238282;
  BAS[ATNO][ 14].a[  5] =       565.950000000000;     BAS[ATNO][ 14].d[  5] =        -0.028130978119;
  BAS[ATNO][ 14].a[  6] =       273.290000000000;     BAS[ATNO][ 14].d[  6] =        -0.077965733696;
  BAS[ATNO][ 14].a[  7] =       137.780000000000;     BAS[ATNO][ 14].d[  7] =        -0.182744110591;
  BAS[ATNO][ 14].a[  8] =        71.579000000000;     BAS[ATNO][ 14].d[  8] =        -0.330906303895;
  BAS[ATNO][ 14].a[  9] =        38.347000000000;     BAS[ATNO][ 14].d[  9] =        -0.423901903481;
  BAS[ATNO][ 14].a[ 10] =        20.853000000000;     BAS[ATNO][ 14].d[ 10] =        -0.338884137719;
  BAS[ATNO][ 14].a[ 11] =        11.399000000000;     BAS[ATNO][ 14].d[ 11] =        -0.133469753330;
  BAS[ATNO][ 14].a[ 12] =         5.944400000000;     BAS[ATNO][ 14].d[ 12] =        -0.015861561424;
  BAS[ATNO][ 14].a[ 13] =         3.115000000000;     BAS[ATNO][ 14].d[ 13] =         0.000490666453;
  BAS[ATNO][ 14].a[ 14] =         1.606000000000;     BAS[ATNO][ 14].d[ 14] =        -0.000227126640;
  BAS[ATNO][ 14].a[ 15] =     97285.000000000000;     BAS[ATNO][ 14].d[ 15] =         0.000038450438;
  BAS[ATNO][ 14].a[ 16] =     23066.000000000000;     BAS[ATNO][ 14].d[ 16] =         0.000342592148;
  BAS[ATNO][ 14].a[ 17] =      7508.300000000000;     BAS[ATNO][ 14].d[ 17] =         0.002010053825;
  BAS[ATNO][ 14].a[ 18] =      2884.200000000000;     BAS[ATNO][ 14].d[ 18] =         0.009176924048;
  BAS[ATNO][ 14].a[ 19] =      1235.000000000000;     BAS[ATNO][ 14].d[ 19] =         0.035004004185;
  BAS[ATNO][ 14].a[ 20] =       565.950000000000;     BAS[ATNO][ 14].d[ 20] =         0.118442353091;
  BAS[ATNO][ 14].a[ 21] =       273.290000000000;     BAS[ATNO][ 14].d[ 21] =         0.336197270073;
  BAS[ATNO][ 14].a[ 22] =       137.780000000000;     BAS[ATNO][ 14].d[ 22] =         0.813871616473;
  BAS[ATNO][ 14].a[ 23] =        71.579000000000;     BAS[ATNO][ 14].d[ 23] =         1.567787139041;
  BAS[ATNO][ 14].a[ 24] =        38.347000000000;     BAS[ATNO][ 14].d[ 24] =         2.057439541523;
  BAS[ATNO][ 14].a[ 25] =        20.853000000000;     BAS[ATNO][ 14].d[ 25] =         1.398207700368;
  BAS[ATNO][ 14].a[ 26] =        11.399000000000;     BAS[ATNO][ 14].d[ 26] =        -1.782448821760;
  BAS[ATNO][ 14].a[ 27] =         5.944400000000;     BAS[ATNO][ 14].d[ 27] =        -5.232611605737;
  BAS[ATNO][ 14].a[ 28] =         3.115000000000;     BAS[ATNO][ 14].d[ 28] =        -5.484457913107;
  BAS[ATNO][ 14].a[ 29] =         1.606000000000;     BAS[ATNO][ 14].d[ 29] =        -2.511004210937;
  BAS[ATNO][ 14].a[ 30] =     97285.000000000000;     BAS[ATNO][ 14].d[ 30] =        -0.000029436772;
  BAS[ATNO][ 14].a[ 31] =     23066.000000000000;     BAS[ATNO][ 14].d[ 31] =        -0.000263243111;
  BAS[ATNO][ 14].a[ 32] =      7508.300000000000;     BAS[ATNO][ 14].d[ 32] =        -0.001539351947;
  BAS[ATNO][ 14].a[ 33] =      2884.200000000000;     BAS[ATNO][ 14].d[ 33] =        -0.007053848369;
  BAS[ATNO][ 14].a[ 34] =      1235.000000000000;     BAS[ATNO][ 14].d[ 34] =        -0.026838923426;
  BAS[ATNO][ 14].a[ 35] =       565.950000000000;     BAS[ATNO][ 14].d[ 35] =        -0.091220943573;
  BAS[ATNO][ 14].a[ 36] =       273.290000000000;     BAS[ATNO][ 14].d[ 36] =        -0.258828775147;
  BAS[ATNO][ 14].a[ 37] =       137.780000000000;     BAS[ATNO][ 14].d[ 37] =        -0.631769301771;
  BAS[ATNO][ 14].a[ 38] =        71.579000000000;     BAS[ATNO][ 14].d[ 38] =        -1.220551946645;
  BAS[ATNO][ 14].a[ 39] =        38.347000000000;     BAS[ATNO][ 14].d[ 39] =        -1.624569866901;
  BAS[ATNO][ 14].a[ 40] =        20.853000000000;     BAS[ATNO][ 14].d[ 40] =        -1.040638269799;
  BAS[ATNO][ 14].a[ 41] =        11.399000000000;     BAS[ATNO][ 14].d[ 41] =         1.745314924576;
  BAS[ATNO][ 14].a[ 42] =         5.944400000000;     BAS[ATNO][ 14].d[ 42] =         5.379233630051;
  BAS[ATNO][ 14].a[ 43] =         3.115000000000;     BAS[ATNO][ 14].d[ 43] =         5.901517970435;
  BAS[ATNO][ 14].a[ 44] =         1.606000000000;     BAS[ATNO][ 14].d[ 44] =         1.193050872903;
  BAS[ATNO][ 14].a[ 45] =         0.782220000000;     BAS[ATNO][ 14].d[ 45] =         2.270635357822;
  BAS[ATNO][ 14].a[ 46] =         0.365320000000;     BAS[ATNO][ 14].d[ 46] =        -3.091760889770;
  BAS[ATNO][ 14].a[ 47] =         0.160620000000;     BAS[ATNO][ 14].d[ 47] =         3.424542297127;
  BAS[ATNO][ 14].a[ 48] =         0.067693000000;     BAS[ATNO][ 14].d[ 48] =        -2.276880078652;

  // Basis function  16 L = d
  InitBFNGauss(BAS[ATNO][ 15]);
  BAS[ATNO][ 15].l  = 2;
  BAS[ATNO][ 15].ng = 13;
  BAS[ATNO][ 15].a[  0] =      2219.700000000000;     BAS[ATNO][ 15].d[  0] =        -0.000067119145;
  BAS[ATNO][ 15].a[  1] =       670.130000000000;     BAS[ATNO][ 15].d[  1] =        -0.000681071181;
  BAS[ATNO][ 15].a[  2] =       263.090000000000;     BAS[ATNO][ 15].d[  2] =        -0.004054888324;
  BAS[ATNO][ 15].a[  3] =       116.690000000000;     BAS[ATNO][ 15].d[  3] =        -0.018555750873;
  BAS[ATNO][ 15].a[  4] =        54.856000000000;     BAS[ATNO][ 15].d[  4] =        -0.065382795208;
  BAS[ATNO][ 15].a[  5] =        27.847000000000;     BAS[ATNO][ 15].d[  5] =        -0.156051965261;
  BAS[ATNO][ 15].a[  6] =        14.745000000000;     BAS[ATNO][ 15].d[  6] =        -0.304238331099;
  BAS[ATNO][ 15].a[  7] =         7.882700000000;     BAS[ATNO][ 15].d[  7] =        -0.435338018577;
  BAS[ATNO][ 15].a[  8] =         4.170300000000;     BAS[ATNO][ 15].d[  8] =        -0.477281518415;
  BAS[ATNO][ 15].a[  9] =         2.168200000000;     BAS[ATNO][ 15].d[  9] =         0.710982163310;
  BAS[ATNO][ 15].a[ 10] =         1.103200000000;     BAS[ATNO][ 15].d[ 10] =        -0.532117290239;
  BAS[ATNO][ 15].a[ 11] =         0.523790000000;     BAS[ATNO][ 15].d[ 11] =         0.245540005238;
  BAS[ATNO][ 15].a[ 12] =         0.218000000000;     BAS[ATNO][ 15].d[ 12] =        -0.067792777576;

  // Basis function  17 L = d
  InitBFNGauss(BAS[ATNO][ 16]);
  BAS[ATNO][ 16].l  = 2;
  BAS[ATNO][ 16].ng = 13;
  BAS[ATNO][ 16].a[  0] =      2219.700000000000;     BAS[ATNO][ 16].d[  0] =        -0.000028433614;
  BAS[ATNO][ 16].a[  1] =       670.130000000000;     BAS[ATNO][ 16].d[  1] =        -0.000288521481;
  BAS[ATNO][ 16].a[  2] =       263.090000000000;     BAS[ATNO][ 16].d[  2] =        -0.001717768153;
  BAS[ATNO][ 16].a[  3] =       116.690000000000;     BAS[ATNO][ 16].d[  3] =        -0.007860753578;
  BAS[ATNO][ 16].a[  4] =        54.856000000000;     BAS[ATNO][ 16].d[  4] =        -0.027698046008;
  BAS[ATNO][ 16].a[  5] =        27.847000000000;     BAS[ATNO][ 16].d[  5] =        -0.066108132877;
  BAS[ATNO][ 16].a[  6] =        14.745000000000;     BAS[ATNO][ 16].d[  6] =        -0.128884169995;
  BAS[ATNO][ 16].a[  7] =         7.882700000000;     BAS[ATNO][ 16].d[  7] =        -0.184421795205;
  BAS[ATNO][ 16].a[  8] =         4.170300000000;     BAS[ATNO][ 16].d[  8] =        -0.202190276723;
  BAS[ATNO][ 16].a[  9] =         2.168200000000;     BAS[ATNO][ 16].d[  9] =         1.817417296132;
  BAS[ATNO][ 16].a[ 10] =         1.103200000000;     BAS[ATNO][ 16].d[ 10] =        -0.928656238144;
  BAS[ATNO][ 16].a[ 11] =         0.523790000000;     BAS[ATNO][ 16].d[ 11] =         0.409359660650;
  BAS[ATNO][ 16].a[ 12] =         0.218000000000;     BAS[ATNO][ 16].d[ 12] =        -0.109265088754;

  // Basis function  18 L = d
  InitBFNGauss(BAS[ATNO][ 17]);
  BAS[ATNO][ 17].l  = 2;
  BAS[ATNO][ 17].ng = 13;
  BAS[ATNO][ 17].a[  0] =      2219.700000000000;     BAS[ATNO][ 17].d[  0] =         0.000014773755;
  BAS[ATNO][ 17].a[  1] =       670.130000000000;     BAS[ATNO][ 17].d[  1] =         0.000149912205;
  BAS[ATNO][ 17].a[  2] =       263.090000000000;     BAS[ATNO][ 17].d[  2] =         0.000892531160;
  BAS[ATNO][ 17].a[  3] =       116.690000000000;     BAS[ATNO][ 17].d[  3] =         0.004084350670;
  BAS[ATNO][ 17].a[  4] =        54.856000000000;     BAS[ATNO][ 17].d[  4] =         0.014391563308;
  BAS[ATNO][ 17].a[  5] =        27.847000000000;     BAS[ATNO][ 17].d[  5] =         0.034348971013;
  BAS[ATNO][ 17].a[  6] =        14.745000000000;     BAS[ATNO][ 17].d[  6] =         0.066966626139;
  BAS[ATNO][ 17].a[  7] =         7.882700000000;     BAS[ATNO][ 17].d[  7] =         0.095823291657;
  BAS[ATNO][ 17].a[  8] =         4.170300000000;     BAS[ATNO][ 17].d[  8] =         0.105055575645;
  BAS[ATNO][ 17].a[  9] =         2.168200000000;     BAS[ATNO][ 17].d[  9] =        -1.721370410135;
  BAS[ATNO][ 17].a[ 10] =         1.103200000000;     BAS[ATNO][ 17].d[ 10] =         2.392049545016;
  BAS[ATNO][ 17].a[ 11] =         0.523790000000;     BAS[ATNO][ 17].d[ 11] =        -0.507624717502;
  BAS[ATNO][ 17].a[ 12] =         0.218000000000;     BAS[ATNO][ 17].d[ 12] =         0.132256561482;

  // Basis function  19 L = d
  InitBFNGauss(BAS[ATNO][ 18]);
  BAS[ATNO][ 18].l  = 2;
  BAS[ATNO][ 18].ng = 13;
  BAS[ATNO][ 18].a[  0] =      2219.700000000000;     BAS[ATNO][ 18].d[  0] =         0.000008246075;
  BAS[ATNO][ 18].a[  1] =       670.130000000000;     BAS[ATNO][ 18].d[  1] =         0.000083674548;
  BAS[ATNO][ 18].a[  2] =       263.090000000000;     BAS[ATNO][ 18].d[  2] =         0.000498172523;
  BAS[ATNO][ 18].a[  3] =       116.690000000000;     BAS[ATNO][ 18].d[  3] =         0.002279708958;
  BAS[ATNO][ 18].a[  4] =        54.856000000000;     BAS[ATNO][ 18].d[  4] =         0.008032751947;
  BAS[ATNO][ 18].a[  5] =        27.847000000000;     BAS[ATNO][ 18].d[  5] =         0.019172118962;
  BAS[ATNO][ 18].a[  6] =        14.745000000000;     BAS[ATNO][ 18].d[  6] =         0.037377891824;
  BAS[ATNO][ 18].a[  7] =         7.882700000000;     BAS[ATNO][ 18].d[  7] =         0.053484441972;
  BAS[ATNO][ 18].a[  8] =         4.170300000000;     BAS[ATNO][ 18].d[  8] =         0.058637506000;
  BAS[ATNO][ 18].a[  9] =         2.168200000000;     BAS[ATNO][ 18].d[  9] =        -1.264941432402;
  BAS[ATNO][ 18].a[ 10] =         1.103200000000;     BAS[ATNO][ 18].d[ 10] =         2.727208128145;
  BAS[ATNO][ 18].a[ 11] =         0.523790000000;     BAS[ATNO][ 18].d[ 11] =        -2.343988457503;
  BAS[ATNO][ 18].a[ 12] =         0.218000000000;     BAS[ATNO][ 18].d[ 12] =         0.228211233483;

  // Basis function  20 L = d
  InitBFNGauss(BAS[ATNO][ 19]);
  BAS[ATNO][ 19].l  = 2;
  BAS[ATNO][ 19].ng = 13;
  BAS[ATNO][ 19].a[  0] =      2219.700000000000;     BAS[ATNO][ 19].d[  0] =        -0.000003970426;
  BAS[ATNO][ 19].a[  1] =       670.130000000000;     BAS[ATNO][ 19].d[  1] =        -0.000040288696;
  BAS[ATNO][ 19].a[  2] =       263.090000000000;     BAS[ATNO][ 19].d[  2] =        -0.000239866503;
  BAS[ATNO][ 19].a[  3] =       116.690000000000;     BAS[ATNO][ 19].d[  3] =        -0.001097663541;
  BAS[ATNO][ 19].a[  4] =        54.856000000000;     BAS[ATNO][ 19].d[  4] =        -0.003867712548;
  BAS[ATNO][ 19].a[  5] =        27.847000000000;     BAS[ATNO][ 19].d[  5] =        -0.009231238009;
  BAS[ATNO][ 19].a[  6] =        14.745000000000;     BAS[ATNO][ 19].d[  6] =        -0.017997187290;
  BAS[ATNO][ 19].a[  7] =         7.882700000000;     BAS[ATNO][ 19].d[  7] =        -0.025752375864;
  BAS[ATNO][ 19].a[  8] =         4.170300000000;     BAS[ATNO][ 19].d[  8] =        -0.028233539297;
  BAS[ATNO][ 19].a[  9] =         2.168200000000;     BAS[ATNO][ 19].d[  9] =         0.669062697738;
  BAS[ATNO][ 19].a[ 10] =         1.103200000000;     BAS[ATNO][ 19].d[ 10] =        -1.723004221365;
  BAS[ATNO][ 19].a[ 11] =         0.523790000000;     BAS[ATNO][ 19].d[ 11] =         2.329229700608;
  BAS[ATNO][ 19].a[ 12] =         0.218000000000;     BAS[ATNO][ 19].d[ 12] =        -1.792640121231;

  // Basis function  21 L = f
  InitBFNGauss(BAS[ATNO][ 20]);
  BAS[ATNO][ 20].l  = 3;
  BAS[ATNO][ 20].ng = 4;
  BAS[ATNO][ 20].a[  0] =         8.460000000000;     BAS[ATNO][ 20].d[  0] =         0.857343239700;
  BAS[ATNO][ 20].a[  1] =         2.490000000000;     BAS[ATNO][ 20].d[  1] =         0.266221057866;
  BAS[ATNO][ 20].a[  2] =         0.730000000000;     BAS[ATNO][ 20].d[  2] =        -0.042422768520;
  BAS[ATNO][ 20].a[  3] =         0.293000000000;     BAS[ATNO][ 20].d[  3] =         0.016074056301;

  // Basis function  22 L = f
  InitBFNGauss(BAS[ATNO][ 21]);
  BAS[ATNO][ 21].l  = 3;
  BAS[ATNO][ 21].ng = 4;
  BAS[ATNO][ 21].a[  0] =         8.460000000000;     BAS[ATNO][ 21].d[  0] =        -0.678454870714;
  BAS[ATNO][ 21].a[  1] =         2.490000000000;     BAS[ATNO][ 21].d[  1] =         1.004300071805;
  BAS[ATNO][ 21].a[  2] =         0.730000000000;     BAS[ATNO][ 21].d[  2] =         0.165787900239;
  BAS[ATNO][ 21].a[  3] =         0.293000000000;     BAS[ATNO][ 21].d[  3] =        -0.042026402902;

  // Basis function  23 L = f
  InitBFNGauss(BAS[ATNO][ 22]);
  BAS[ATNO][ 22].l  = 3;
  BAS[ATNO][ 22].ng = 4;
  BAS[ATNO][ 22].a[  0] =         8.460000000000;     BAS[ATNO][ 22].d[  0] =         0.319845415086;
  BAS[ATNO][ 22].a[  1] =         2.490000000000;     BAS[ATNO][ 22].d[  1] =        -0.756811341976;
  BAS[ATNO][ 22].a[  2] =         0.730000000000;     BAS[ATNO][ 22].d[  2] =         1.227055585729;
  BAS[ATNO][ 22].a[  3] =         0.293000000000;     BAS[ATNO][ 22].d[  3] =        -0.139424812451;

  // Basis function  24 L = f
  InitBFNGauss(BAS[ATNO][ 23]);
  BAS[ATNO][ 23].l  = 3;
  BAS[ATNO][ 23].ng = 4;
  BAS[ATNO][ 23].a[  0] =         8.460000000000;     BAS[ATNO][ 23].d[  0] =        -0.108767437818;
  BAS[ATNO][ 23].a[  1] =         2.490000000000;     BAS[ATNO][ 23].d[  1] =         0.304671400356;
  BAS[ATNO][ 23].a[  2] =         0.730000000000;     BAS[ATNO][ 23].d[  2] =        -0.879171716545;
  BAS[ATNO][ 23].a[  3] =         0.293000000000;     BAS[ATNO][ 23].d[  3] =         1.337103557400;

  // Basis function  25 L = g
  InitBFNGauss(BAS[ATNO][ 24]);
  BAS[ATNO][ 24].l  = 4;
  BAS[ATNO][ 24].ng = 2;
  BAS[ATNO][ 24].a[  0] =         2.250000000000;     BAS[ATNO][ 24].d[  0] =         0.996265008069;
  BAS[ATNO][ 24].a[  1] =         0.560000000000;     BAS[ATNO][ 24].d[  1] =         0.012588494506;

  // Basis function  26 L = g
  InitBFNGauss(BAS[ATNO][ 25]);
  BAS[ATNO][ 25].l  = 4;
  BAS[ATNO][ 25].ng = 2;
  BAS[ATNO][ 25].a[  0] =         2.250000000000;     BAS[ATNO][ 25].d[  0] =        -0.316113403316;
  BAS[ATNO][ 25].a[  1] =         0.560000000000;     BAS[ATNO][ 25].d[  1] =         1.045137876007;

  // Basis function  27 L = h
  InitBFNGauss(BAS[ATNO][ 26]);
  BAS[ATNO][ 26].l  = 5;
  BAS[ATNO][ 26].ng = 1;
  BAS[ATNO][ 26].a[  0] =         0.840000000000;     BAS[ATNO][ 26].d[  0] =         1.000000000000;

-------
TIMINGS
-------

Total SCF time: 0 days 0 hours 0 min 11 sec 

Total time                  ....      11.278 sec
Sum of individual times     ....      10.897 sec  ( 96.6%)

Fock matrix formation       ....      10.064 sec  ( 89.2%)
  XC integration            ....       0.047 sec  (  0.5% of F)
    Basis function eval.    ....       0.011 sec  ( 23.2% of XC)
    Density eval.           ....       0.004 sec  (  7.8% of XC)
    XC-Functional eval.     ....       0.002 sec  (  3.7% of XC)
    XC-Potential eval.      ....       0.009 sec  ( 18.3% of XC)
Diagonalization             ....       0.002 sec  (  0.0%)
Density matrix formation    ....       0.001 sec  (  0.0%)
Population analysis         ....       0.002 sec  (  0.0%)
Initial guess               ....       0.101 sec  (  0.9%)
Orbital Transformation      ....       0.000 sec  (  0.0%)
Orbital Orthonormalization  ....       0.000 sec  (  0.0%)
DIIS solution               ....       0.000 sec  (  0.0%)
SOSCF solution              ....       0.002 sec  (  0.0%)
Grid generation             ....       0.723 sec  (  6.4%)

-------------------------   --------------------
FINAL SINGLE POINT ENERGY     -1767.898283205350
-------------------------   --------------------


                            ***************************************
                            *     ORCA property calculations      *
                            ***************************************

                                    ---------------------
                                    Active property flags
                                    ---------------------
   (+) Dipole Moment


------------------------------------------------------------------------------
                       ORCA ELECTRIC PROPERTIES CALCULATION
------------------------------------------------------------------------------

Dipole Moment Calculation                       ... on
Quadrupole Moment Calculation                   ... off
Polarizability Calculation                      ... off
GBWName                                         ... Kr_pc-4_34.25899725_.gbw
Electron density file                           ... Kr_pc-4_34.25899725_.scfp
The origin for moment calculation is the CENTER OF MASS  = ( 0.000000,  0.000000  0.000000)

-------------
DIPOLE MOMENT
-------------
                                X             Y             Z
Electronic contribution:     -0.00000       0.00000       0.00000
Nuclear contribution   :      0.00000       0.00000       0.00000
                        -----------------------------------------
Total Dipole Moment    :     -0.00000       0.00000       0.00000
                        -----------------------------------------
Magnitude (a.u.)       :      0.00000
Magnitude (Debye)      :      0.00000



--------------------
Rotational spectrum 
--------------------
 
Rotational constants in cm-1:     0.000000     0.000000     0.000000 
Rotational constants in MHz :     0.000000     0.000000     0.000000 

 Dipole components along the rotational axes: 
x,y,z [a.u.] :    -0.000000     0.000000     0.000000 
x,y,z [Debye]:    -0.000000     0.000000     0.000000 

 

Timings for individual modules:

Sum of individual times         ...       14.641 sec (=   0.244 min)
GTO integral calculation        ...        2.517 sec (=   0.042 min)  17.2 %
Relativistic integrals          ...        0.523 sec (=   0.009 min)   3.6 %
SCF iterations                  ...       11.601 sec (=   0.193 min)  79.2 %
                             ****ORCA TERMINATED NORMALLY****
TOTAL RUN TIME: 0 days 0 hours 0 minutes 15 seconds 35 msec
