
                                 *****************
                                 * O   R   C   A *
                                 *****************

           --- An Ab Initio, DFT and Semiempirical electronic structure package ---

                  #######################################################
                  #                        -***-                        #
                  #          Department of theory and spectroscopy      #
                  #               Directorship: Frank Neese             #
                  #        Max Planck Institute fuer Kohlenforschung    #
                  #                Kaiser Wilhelm Platz 1               #
                  #                 D-45470 Muelheim/Ruhr               #
                  #                      Germany                        #
                  #                                                     #
                  #                  All rights reserved                #
                  #                        -***-                        #
                  #######################################################


                         Program Version 4.2.1 -  RELEASE  -


 With contributions from (in alphabetic order):
   Daniel Aravena         : Magnetic Suceptibility
   Michael Atanasov       : Ab Initio Ligand Field Theory (pilot matlab implementation)
   Alexander A. Auer      : GIAO ZORA, VPT2
   Ute Becker             : Parallelization
   Giovanni Bistoni       : ED, misc. LED, open-shell LED, HFLD
   Martin Brehm           : Molecular dynamics
   Dmytro Bykov           : SCF Hessian
   Vijay G. Chilkuri      : MRCI spin determinant printing, contributions to CSF-ICE
   Dipayan Datta          : RHF DLPNO-CCSD density
   Achintya Kumar Dutta   : EOM-CC, STEOM-CC
   Dmitry Ganyushin       : Spin-Orbit,Spin-Spin,Magnetic field MRCI
   Miquel Garcia          : C-PCM Hessian, Gaussian charge scheme
   Yang Guo               : DLPNO-NEVPT2, CIM, IAO-localization
   Andreas Hansen         : Spin unrestricted coupled pair/coupled cluster methods
   Benjamin Helmich-Paris : CASSCF linear response (MC-RPA)
   Lee Huntington         : MR-EOM, pCC
   Robert Izsak           : Overlap fitted RIJCOSX, COSX-SCS-MP3, EOM
   Christian Kollmar      : KDIIS, OOCD, Brueckner-CCSD(T), CCSD density
   Simone Kossmann        : Meta GGA functionals, TD-DFT gradient, OOMP2, MP2 Hessian
   Martin Krupicka        : AUTO-CI
   Lucas Lang             : DCDCAS
   Dagmar Lenk            : GEPOL surface, SMD
   Dimitrios Liakos       : Extrapolation schemes; Compound Job, initial MDCI parallelization
   Dimitrios Manganas     : Further ROCIS development; embedding schemes
   Dimitrios Pantazis     : SARC Basis sets
   Taras Petrenko         : DFT Hessian,TD-DFT gradient, ASA, ECA, R-Raman, ABS, FL, XAS/XES, NRVS
   Peter Pinski           : DLPNO-MP2, DLPNO-MP2 Gradient
   Christoph Reimann      : Effective Core Potentials
   Marius Retegan         : Local ZFS, SOC
   Christoph Riplinger    : Optimizer, TS searches, QM/MM, DLPNO-CCSD(T), (RO)-DLPNO pert. Triples
   Tobias Risthaus        : Range-separated hybrids, TD-DFT gradient, RPA, STAB
   Michael Roemelt        : Original ROCIS implementation
   Masaaki Saitow         : Open-shell DLPNO-CCSD energy and density
   Barbara Sandhoefer     : DKH picture change effects
   Avijit Sen             : IP-ROCIS
   Kantharuban Sivalingam : CASSCF convergence, NEVPT2, FIC-MRCI
   Bernardo de Souza      : ESD, SOC TD-DFT
   Georgi Stoychev        : AutoAux, RI-MP2 NMR
   Willem Van den Heuvel  : Paramagnetic NMR
   Boris Wezisla          : Elementary symmetry handling
   Frank Wennmohs         : Technical directorship


 We gratefully acknowledge several colleagues who have allowed us to
 interface, adapt or use parts of their codes:
   Stefan Grimme, W. Hujo, H. Kruse,             : VdW corrections, initial TS optimization,
                  C. Bannwarth                     DFT functionals, gCP, sTDA/sTD-DF
   Ed Valeev, F. Pavosevic, A. Kumar             : LibInt (2-el integral package), F12 methods
   Garnet Chan, S. Sharma, J. Yang, R. Olivares  : DMRG
   Ulf Ekstrom                                   : XCFun DFT Library
   Mihaly Kallay                                 : mrcc  (arbitrary order and MRCC methods)
   Andreas Klamt, Michael Diedenhofen            : otool_cosmo (COSMO solvation model)
   Jiri Pittner, Ondrej Demel                    : Mk-CCSD
   Frank Weinhold                                : gennbo (NPA and NBO analysis)
   Christopher J. Cramer and Donald G. Truhlar   : smd solvation model
   Lars Goerigk                                  : TD-DFT with DH, B97 family of functionals
   V. Asgeirsson, H. Jonsson                     : NEB implementation
   FAccTs GmbH                                   : IRC, NEB, NEB-TS, Multilevel, MM, QM/MM, CI optimization
   S Lehtola, MJT Oliveira, MAL Marques          : LibXC Library


 Your calculation uses the libint2 library for the computation of 2-el integrals
 For citations please refer to: http://libint.valeyev.net

 Your ORCA version has been built with support for libXC version: 4.2.3
 For citations please refer to: https://tddft.org/programs/libxc/

 This ORCA versions uses:
   CBLAS   interface :  Fast vector & matrix operations
   LAPACKE interface :  Fast linear algebra routines
   SCALAPACK package :  Parallel linear algebra routines


----- Orbital basis set information -----
Your calculation utilizes the basis: pc-4
   H, C-F              : F. Jensen, J. Chem. Phys. 115, 9113 (2001).
                         F. Jensen, J. Chem. Phys. 116, 7372 (2002).
                         F. Jensen, J. Chem. Phys. 117, 9234 (2002).
   Si-Cl               : F. Jensen, T. Helgaker, J. Chem. Phys. 121, 3463 (2004).
   He-B, Ne-Mg, Al, Ar : F. Jensen, J. Phys. Chem. A 111, 11198 (2007).
   K, Ca, Ga-Kr        : F. Jensen, J. Chem. Phys. 136, 094110 (2012).
   Sc-Zn               : F. Jensen, J. Chem. Phys. 138, 014107 (2013).

================================================================================
                                        WARNINGS
                       Please study these warnings very carefully!
================================================================================


INFO   : the flag for use of LIBINT has been found!

================================================================================
                                       INPUT FILE
================================================================================
NAME = Kr_pc-4_274.071978_.inp
|  1> ! LDA pc-4 nori grid5 finalgrid6 verytightscf
|  2> %Pal NProcs 18 End
|  3> 
|  4> % REL
|  5>   Method ZORA
|  6>   ModelPot 1, 0, 0, 0
|  7>   velit 274.071978
|  8> END
|  9> 
| 10> *xyz 34 1
| 11> Kr 0.0 0.0 0.0
| 12> **                         ****END OF INPUT****
================================================================================

                       ****************************
                       * Single Point Calculation *
                       ****************************

---------------------------------
CARTESIAN COORDINATES (ANGSTROEM)
---------------------------------
  Kr     0.000000    0.000000    0.000000

----------------------------
CARTESIAN COORDINATES (A.U.)
----------------------------
  NO LB      ZA    FRAG     MASS         X           Y           Z
   0 Kr   36.0000    0    83.800    0.000000    0.000000    0.000000

--------------------------------
INTERNAL COORDINATES (ANGSTROEM)
--------------------------------
 Kr     0   0   0     0.000000000000     0.00000000     0.00000000

---------------------------
INTERNAL COORDINATES (A.U.)
---------------------------
 Kr     0   0   0     0.000000000000     0.00000000     0.00000000

---------------------
BASIS SET INFORMATION
---------------------
There are 1 groups of distinct atoms

 Group   1 Type Kr  : 84s49p13d4f2g1h contracted to 8s7p5d4f2g1h pattern {202020201111/1515151111/91111/1111/11/1}

Atom   0Kr   basis set group =>   1


           ************************************************************
           *        Program running with 18 parallel MPI-processes    *
           *              working on a common directory               *
           ************************************************************
------------------------------------------------------------------------------
                           ORCA GTO INTEGRAL CALCULATION
------------------------------------------------------------------------------

                         BASIS SET STATISTICS AND STARTUP INFO

 # of primitive gaussian shells          ...  153
 # of primitive gaussian functions       ...  353
 # of contracted shells                  ...   27
 # of contracted basis functions         ...  111
 Highest angular momentum                ...    5
 Maximum contraction depth               ...   20
 Integral package used                   ... LIBINT
 Integral threshhold            Thresh   ...  1.000e-12
 Primitive cut-off              TCut     ...  1.000e-14


------------------------------ INTEGRAL EVALUATION ----------------------------


 * One electron integrals 
 Pre-screening matrix                    ... done
 Shell pair data                         ... done (   0.000 sec)



           ************************************************************
           *        Program running with 18 parallel MPI-processes    *
           *              working on a common directory               *
           ************************************************************
------------------------------------------------------------------------------
                          ORCA RELATIVISTIC HAMILTONIAN
------------------------------------------------------------------------------

Relativistic Method            ... ZORA(MP)
Treatment of potential         ... Van Wuellen
Nucleus model                  ... Point Nucleus
Speed of light used            ... 274.07197800000000


            *************************************************
            *         ZERO ORDER REGULAR APPROXIMATION      *
            *                     ZORA(MP)                  *
            *            Programmed by FN according to      *
            *                   C. van Wuellen              *
            *       J. Chem. Phys. (1998) vol 109, 392-399  *
            *************************************************

Terms included in model potential: +V(e,N)
Basis function cutoff value   ... 1.000000e-12
Loading the fitted atomic densities  (DKH4)  ... done
Calculating the cutoffs                      ... done
Number of fit functions                      ... 27
Setting up the integration grid ... done


           ************************************************************
           *        Program running with 18 parallel MPI-processes    *
           *              working on a common directory               *
           ************************************************************
-------------------------------------------------------------------------------
                                 ORCA SCF
-------------------------------------------------------------------------------

------------
SCF SETTINGS
------------
Hamiltonian:
 Density Functional     Method          .... DFT(GTOs)
 Exchange Functional    Exchange        .... Slater
   X-Alpha parameter    XAlpha          ....  0.666667
 Correlation Functional Correlation     .... VWN-5
 Gradients option       PostSCFGGA      .... off
   Density functional embedding theory  .... OFF

Relativistic Settings:
 Scalar relativistic method             .... ZORA
 Speed of light used       Velit        ....       274.071978
Orbital energies will be scaled


General Settings:
 Integral files         IntName         .... Kr_pc-4_274.071978_
 Hartree-Fock type      HFTyp           .... RHF
 Total Charge           Charge          ....   34
 Multiplicity           Mult            ....    1
 Number of Electrons    NEL             ....    2
 Basis Dimension        Dim             ....  111
 Nuclear Repulsion      ENuc            ....      0.0000000000 Eh

Convergence Acceleration:
 DIIS                   CNVDIIS         .... on
   Start iteration      DIISMaxIt       ....    12
   Startup error        DIISStart       ....  0.200000
   # of expansion vecs  DIISMaxEq       ....     5
   Bias factor          DIISBfac        ....   1.050
   Max. coefficient     DIISMaxC        ....  10.000
 Newton-Raphson         CNVNR           .... off
 SOSCF                  CNVSOSCF        .... on
   Start iteration      SOSCFMaxIt      ....   150
   Startup grad/error   SOSCFStart      ....  0.003300
 Level Shifting         CNVShift        .... on
   Level shift para.    LevelShift      ....    0.2500
   Turn off err/grad.   ShiftErr        ....    0.0010
 Zerner damping         CNVZerner       .... off
 Static damping         CNVDamp         .... on
   Fraction old density DampFac         ....    0.7000
   Max. Damping (<1)    DampMax         ....    0.9800
   Min. Damping (>=0)   DampMin         ....    0.0000
   Turn off err/grad.   DampErr         ....    0.1000
 Fernandez-Rico         CNVRico         .... off

SCF Procedure:
 Maximum # iterations   MaxIter         ....   125
 SCF integral mode      SCFMode         .... Direct
   Integral package                     .... LIBINT
 Reset frequency        DirectResetFreq ....    20
 Integral Threshold     Thresh          ....  1.000e-12 Eh
 Primitive CutOff       TCut            ....  1.000e-14 Eh

Convergence Tolerance:
 Convergence Check Mode ConvCheckMode   .... Total+1el-Energy
 Convergence forced     ConvForced      .... 0
 Energy Change          TolE            ....  1.000e-09 Eh
 1-El. energy change                    ....  1.000e-06 Eh
 Orbital Gradient       TolG            ....  2.000e-06
 Orbital Rotation angle TolX            ....  2.000e-06
 DIIS Error             TolErr          ....  1.000e-08


Diagonalization of the overlap matrix:
Smallest eigenvalue                        ... 1.976e-05
Time for diagonalization                   ...    0.002 sec
Threshold for overlap eigenvalues          ... 1.000e-08
Number of eigenvalues below threshold      ... 0
Time for construction of square roots      ...    0.002 sec
Total time needed                          ...    0.004 sec

-------------------
DFT GRID GENERATION
-------------------

General Integration Accuracy     IntAcc      ...  5.010
Radial Grid Type                 RadialGrid  ... Gauss-Chebyshev
Angular Grid (max. acc.)         AngularGrid ... Lebedev-434
Angular grid pruning method      GridPruning ... 3 (G Style)
Weight generation scheme         WeightScheme... Becke
Basis function cutoff            BFCut       ...    1.0000e-12
Integration weight cutoff        WCut        ...    1.0000e-14
Grids for H and He will be reduced by one unit

# of grid points (after initial pruning)     ...  16106 (   0.0 sec)
# of grid points (after weights+screening)   ...  16106 (   0.0 sec)
Grid point division into batches done        ...    0.2 sec
Reduced shell lists constructed in    0.2 sec

Total number of grid points                  ...    16106
Total number of batches                      ...      252
Average number of points per batch           ...       63
Average number of grid points per atom       ...    16106
Average number of shells per batch           ...     2.00 ( 7.41%)
Average number of basis functions per batch  ...     4.93 ( 4.44%)
Average number of large shells per batch     ...     0.93 (46.67%)
Average number of large basis fcns per batch ...     2.80 (56.76%)
Maximum spatial batch extension              ...  17.34, 17.34, 17.34 au
Average spatial batch extension              ...   0.86,  0.87,  0.87 au

Time for grid setup =    0.253 sec

------------------------------
INITIAL GUESS: MODEL POTENTIAL
------------------------------
Loading ZORA relativistic densities                ... done
Calculating cut-offs                               ... done
Setting up the integral package                    ... done
Initializing the effective Hamiltonian             ... done
Starting the Coulomb interaction                   ... done (   0.0 sec)
Reading the grid                                   ... done
Mapping shells                                     ... done
Starting the XC term evaluation                    ... done (   0.0 sec)
  promolecular density results
     # of electrons  =     36.000000565
     EX              =    -91.042004939
     EC              =     -3.295965580
     EX+EC           =    -94.337970520
Transforming the Hamiltonian                       ... done (   0.0 sec)
Diagonalizing the Hamiltonian                      ... done (   0.0 sec)
Back transforming the eigenvectors                 ... done (   0.0 sec)
Now organizing SCF variables                       ... done
                      ------------------
                      INITIAL GUESS DONE (   0.3 sec)
                      ------------------
--------------
SCF ITERATIONS
--------------
ITER       Energy         Delta-E        Max-DP      RMS-DP      [F,P]     Damp
               ***  Starting incremental Fock matrix formation  ***
  0  -1281.4730495017   0.000000000000 0.30806485  0.00534278  5.9932277 0.7000
  1  -1281.4881504478  -0.015100946066 0.21425652  0.00371638  4.1874443 0.7000
  2  -1281.4986904994  -0.010540051594 0.14892713  0.00258359  2.9251341 0.7000
                      *** Initiating the SOSCF procedure ***
                      *** Re-Reading the Fockian *** 
                      *** Removing any level shift *** 
ITER      Energy       Delta-E        Grad      Rot      Max-DP    RMS-DP
  3  -1281.50605366  -0.0073631600  0.002428  0.002428  0.345049  0.005987
               *** Restarting incremental Fock matrix formation ***
  4  -1281.52318720  -0.0171335419  0.005650  0.000011  0.005694  0.000097
  5  -1281.52318742  -0.0000002189  0.000037  0.000000  0.000037  0.000001
                 **** Energy Check signals convergence ****
              ***Rediagonalizing the Fockian in SOSCF/NRSCF***

               *****************************************************
               *                     SUCCESS                       *
               *           SCF CONVERGED AFTER   6 CYCLES          *
               *****************************************************

Setting up the final grid:

General Integration Accuracy     IntAcc      ...  5.340
Radial Grid Type                 RadialGrid  ... Gauss-Chebyshev
Angular Grid (max. acc.)         AngularGrid ... Lebedev-590
Angular grid pruning method      GridPruning ... 3 (G Style)
Weight generation scheme         WeightScheme... Becke
Basis function cutoff            BFCut       ...    1.0000e-12
Integration weight cutoff        WCut        ...    1.0000e-14
Grids for H and He will be reduced by one unit

# of grid points (after initial pruning)     ...  24180 (   0.0 sec)
# of grid points (after weights+screening)   ...  24180 (   0.0 sec)
Grid point division into batches done        ...    0.4 sec
Reduced shell lists constructed in    0.4 sec

Total number of grid points                  ...    24180
Total number of batches                      ...      378
Average number of points per batch           ...       63
Average number of grid points per atom       ...    24180
Average number of shells per batch           ...     1.36 ( 5.05%)
Average number of basis functions per batch  ...     4.09 ( 3.69%)
Average number of large shells per batch     ...     0.95 (70.00%)
Average number of large basis fcns per batch ...     2.86 (70.00%)
Maximum spatial batch extension              ...  17.58, 17.58, 17.58 au
Average spatial batch extension              ...   0.77,  0.77,  0.77 au

Final grid set up in    0.6 sec
Final integration                            ... done (   0.0 sec)
Change in XC energy                          ...    -0.000070007
Integrated number of electrons               ...     1.999998872
Previous integrated no of electrons          ...     1.999995327

----------------
TOTAL SCF ENERGY
----------------

Total Energy       :        -1281.52325743 Eh          -34872.02069 eV

Components:
Nuclear Repulsion  :            0.00000000 Eh               0.00000 eV
Electronic Energy  :        -1281.52325743 Eh          -34872.02069 eV
One Electron Energy:        -1306.74234563 Eh          -35558.26697 eV
Two Electron Energy:           25.21908820 Eh             686.24628 eV

Virial components:
Potential Energy   :        -2552.34485692 Eh          -69452.83447 eV
Kinetic Energy     :         1270.82159949 Eh           34580.81378 eV
Virial Ratio       :            2.00842105


DFT components:
N(Alpha)           :        0.999999436130 electrons
N(Beta)            :        0.999999436130 electrons
N(Total)           :        1.999998872259 electrons
E(X)               :      -19.155849908814 Eh       
E(C)               :       -0.278191570335 Eh       
E(XC)              :      -19.434041479149 Eh       
DFET-embed. en.    :        0.000000000000 Eh       

---------------
SCF CONVERGENCE
---------------

  Last Energy change         ...   -8.6402e-12  Tolerance :   1.0000e-09
  Last MAX-Density change    ...    0.0000e+00  Tolerance :   1.0000e-08
  Last RMS-Density change    ...    0.0000e+00  Tolerance :   1.0000e-09
  Last Orbital Gradient      ...    8.3641e-11  Tolerance :   2.0000e-06
  Last Orbital Rotation      ...    0.0000e+00  Tolerance :   2.0000e-06

================================================================================
                                        WARNING
Number of found core electrons (2) does not match given number of chemical core electrons (18)
================================================================================
             **** THE GBW FILE WAS UPDATED (Kr_pc-4_274.071978_.gbw) ****
             **** DENSITY FILE WAS UPDATED (Kr_pc-4_274.071978_.scfp) ****
             **** ENERGY FILE WAS UPDATED (Kr_pc-4_274.071978_.en.tmp) ****
             **** THE GBW FILE WAS UPDATED (Kr_pc-4_274.071978_.gbw) ****
             **** DENSITY FILE WAS UPDATED (Kr_pc-4_274.071978_.scfp) ****
----------------
ORBITAL ENERGIES
----------------

  NO   OCC          E(Eh)            E(eV) 
   0   2.0000    -621.637497    -16915.6163 
   1   0.0000    -149.425314     -4066.0695 
   2   0.0000    -146.834672     -3995.5746 
   3   0.0000    -146.834672     -3995.5746 
   4   0.0000    -146.834672     -3995.5746 
   5   0.0000     -63.792845     -1735.8916 
   6   0.0000     -61.327917     -1668.8175 
   7   0.0000     -61.327917     -1668.8175 
   8   0.0000     -61.327917     -1668.8175 
   9   0.0000     -61.327917     -1668.8175 
  10   0.0000     -61.327917     -1668.8175 
  11   0.0000     -60.318639     -1641.3536 
  12   0.0000     -60.318639     -1641.3536 
  13   0.0000     -60.318639     -1641.3536 
  14   0.0000     -35.095492      -954.9969 
  15   0.0000     -35.095492      -954.9969 
  16   0.0000     -35.095492      -954.9969 
  17   0.0000     -35.095492      -954.9969 
  18   0.0000     -35.095492      -954.9969 
  19   0.0000     -35.095492      -954.9969 
  20   0.0000     -35.095492      -954.9969 
  21   0.0000     -33.945968      -923.7167 
  22   0.0000     -31.662953      -861.5928 
  23   0.0000     -31.662953      -861.5928 
  24   0.0000     -31.662953      -861.5928 
  25   0.0000     -31.662953      -861.5928 
  26   0.0000     -31.662953      -861.5928 
  27   0.0000     -29.408078      -800.2345 
  28   0.0000     -29.408078      -800.2345 
  29   0.0000     -29.408078      -800.2345 
  30   0.0000     -22.217510      -604.5692 
  31   0.0000     -22.217510      -604.5692 
  32   0.0000     -22.217510      -604.5692 
  33   0.0000     -22.217510      -604.5692 
  34   0.0000     -22.217510      -604.5692 
  35   0.0000     -22.217510      -604.5692 
  36   0.0000     -22.217510      -604.5692 
  37   0.0000     -20.721171      -563.8517 
  38   0.0000     -20.721171      -563.8517 
  39   0.0000     -20.721171      -563.8517 
  40   0.0000     -20.721171      -563.8517 
  41   0.0000     -20.721171      -563.8517 
  42   0.0000     -20.721171      -563.8517 
  43   0.0000     -20.721171      -563.8517 
  44   0.0000     -20.721171      -563.8517 
  45   0.0000     -20.721171      -563.8517 
  46   0.0000     -20.654309      -562.0323 
  47   0.0000     -19.483489      -530.1727 
  48   0.0000     -19.483489      -530.1727 
  49   0.0000     -19.483489      -530.1727 
  50   0.0000     -19.483489      -530.1727 
  51   0.0000     -19.483489      -530.1727 
  52   0.0000     -17.357122      -472.3113 
  53   0.0000     -17.357122      -472.3113 
  54   0.0000     -17.357122      -472.3113 
  55   0.0000     -15.178986      -413.0412 
  56   0.0000     -15.178986      -413.0412 
  57   0.0000     -15.178986      -413.0412 
  58   0.0000     -15.178986      -413.0412 
  59   0.0000     -15.178986      -413.0412 
  60   0.0000     -15.178986      -413.0412 
  61   0.0000     -15.178986      -413.0412 
  62   0.0000     -13.457456      -366.1960 
  63   0.0000     -13.201399      -359.2283 
  64   0.0000     -13.201399      -359.2283 
  65   0.0000     -13.201399      -359.2283 
  66   0.0000     -13.201399      -359.2283 
  67   0.0000     -13.201399      -359.2283 
  68   0.0000     -12.918607      -351.5332 
  69   0.0000     -12.918607      -351.5332 
  70   0.0000     -12.918607      -351.5332 
  71   0.0000     -12.918607      -351.5332 
  72   0.0000     -12.918607      -351.5332 
  73   0.0000     -12.918607      -351.5332 
  74   0.0000     -12.918607      -351.5332 
  75   0.0000     -12.918607      -351.5332 
  76   0.0000     -12.918607      -351.5332 
  77   0.0000     -12.918607      -351.5332 
  78   0.0000     -12.918607      -351.5332 
  79   0.0000     -12.656874      -344.4110 
  80   0.0000     -12.656874      -344.4110 
  81   0.0000     -12.656874      -344.4110 
  82   0.0000     -12.656874      -344.4110 
  83   0.0000     -12.656874      -344.4110 
  84   0.0000     -12.656874      -344.4110 
  85   0.0000     -12.656874      -344.4110 
  86   0.0000     -12.656874      -344.4110 
  87   0.0000     -12.656874      -344.4110 
  88   0.0000     -11.764585      -320.1306 
  89   0.0000     -11.764585      -320.1306 
  90   0.0000     -11.764585      -320.1306 
  91   0.0000     -10.071700      -274.0649 
  92   0.0000     -10.071700      -274.0649 
  93   0.0000     -10.071700      -274.0649 
  94   0.0000     -10.071700      -274.0649 
  95   0.0000     -10.071700      -274.0649 
  96   0.0000     -10.071700      -274.0649 
  97   0.0000     -10.071700      -274.0649 
  98   0.0000      -9.140860      -248.7354 
  99   0.0000      -9.140860      -248.7354 
 100   0.0000      -9.140860      -248.7354 
 101   0.0000      -9.140860      -248.7354 
 102   0.0000      -9.140860      -248.7354 
 103   0.0000      -8.822399      -240.0697 
 104   0.0000      -8.464685      -230.3358 
 105   0.0000      -8.464685      -230.3358 
 106   0.0000      -8.464685      -230.3358 
 107   0.0000      -5.820187      -158.3753 
 108   0.0000      -5.820187      -158.3753 
 109   0.0000      -5.820187      -158.3753 
 110   0.0000     145.763205      3966.4184 

                    ********************************
                    * MULLIKEN POPULATION ANALYSIS *
                    ********************************

-----------------------
MULLIKEN ATOMIC CHARGES
-----------------------
   0 Kr:   34.000000
Sum of atomic charges:   34.0000000

--------------------------------
MULLIKEN REDUCED ORBITAL CHARGES
--------------------------------
  0 Krs       :     2.000000  s :     2.000000
      pz      :     0.000000  p :     0.000000
      px      :     0.000000
      py      :     0.000000
      dz2     :     0.000000  d :     0.000000
      dxz     :     0.000000
      dyz     :     0.000000
      dx2y2   :     0.000000
      dxy     :     0.000000
      f0      :     0.000000  f :     0.000000
      f+1     :     0.000000
      f-1     :     0.000000
      f+2     :     0.000000
      f-2     :     0.000000
      f+3     :     0.000000
      f-3     :     0.000000
      g0      :     0.000000  g :     0.000000
      g+1     :     0.000000
      g-1     :     0.000000
      g+2     :     0.000000
      g-2     :     0.000000
      g+3     :     0.000000
      g-3     :     0.000000
      g+4     :     0.000000
      g-4     :     0.000000
      h0      :     0.000000  h :     0.000000
      h+1     :     0.000000
      h-1     :     0.000000
      h+2     :     0.000000
      h-2     :     0.000000
      h+3     :     0.000000
      h-3     :     0.000000
      h+4     :     0.000000
      h-4     :     0.000000
      h+5     :     0.000000
      h-5     :     0.000000


                     *******************************
                     * LOEWDIN POPULATION ANALYSIS *
                     *******************************

----------------------
LOEWDIN ATOMIC CHARGES
----------------------
   0 Kr:   34.000000

-------------------------------
LOEWDIN REDUCED ORBITAL CHARGES
-------------------------------
  0 Krs       :     2.000000  s :     2.000000
      pz      :     0.000000  p :     0.000000
      px      :     0.000000
      py      :     0.000000
      dz2     :     0.000000  d :     0.000000
      dxz     :     0.000000
      dyz     :     0.000000
      dx2y2   :     0.000000
      dxy     :     0.000000
      f0      :     0.000000  f :     0.000000
      f+1     :     0.000000
      f-1     :     0.000000
      f+2     :     0.000000
      f-2     :     0.000000
      f+3     :     0.000000
      f-3     :     0.000000
      g0      :     0.000000  g :     0.000000
      g+1     :     0.000000
      g-1     :     0.000000
      g+2     :     0.000000
      g-2     :     0.000000
      g+3     :     0.000000
      g-3     :     0.000000
      g+4     :     0.000000
      g-4     :     0.000000
      h0      :     0.000000  h :     0.000000
      h+1     :     0.000000
      h-1     :     0.000000
      h+2     :     0.000000
      h-2     :     0.000000
      h+3     :     0.000000
      h-3     :     0.000000
      h+4     :     0.000000
      h-4     :     0.000000
      h+5     :     0.000000
      h-5     :     0.000000


                      *****************************
                      * MAYER POPULATION ANALYSIS *
                      *****************************

  NA   - Mulliken gross atomic population
  ZA   - Total nuclear charge
  QA   - Mulliken gross atomic charge
  VA   - Mayer's total valence
  BVA  - Mayer's bonded valence
  FA   - Mayer's free valence

  ATOM       NA         ZA         QA         VA         BVA        FA
  0 Kr     2.0000    36.0000    34.0000    -0.0000     0.0000    -0.0000

  Mayer bond orders larger than 0.100000


--------------------------
ATOM BASIS FOR ELEMENT Kr
--------------------------
 NewGTO Kr
 S 84
    1   81180000.000000000000         0.000000532845
    2   12174000.000000000000         0.000004133276
    3    2775000.000000000000         0.000021700850
    4     787190.000000000000         0.000091566954
    5     257190.000000000000         0.000333506386
    6      92980.000000000000         0.001089424766
    7      36316.000000000000         0.003262580551
    8      15086.000000000000         0.009069050138
    9       6592.600000000000         0.023460153613
   10       3007.200000000000         0.056006630526
   11       1422.900000000000         0.120496303153
   12        693.380000000000         0.223380377871
   13        347.150000000000         0.319873382408
   14        177.900000000000         0.302760156449
   15         92.353000000000         0.142023781789
   16         45.341000000000         0.017463807186
   17         23.694000000000        -0.001197286070
   18         12.583000000000         0.000545467284
   19          6.605000000000        -0.000253512450
   20          3.354100000000         0.000117355147
   21   81180000.000000000000        -0.000000064605
   22   12174000.000000000000        -0.000000501025
   23    2775000.000000000000        -0.000002631921
   24     787190.000000000000        -0.000011099592
   25     257190.000000000000        -0.000040475984
   26      92980.000000000000        -0.000132221869
   27      36316.000000000000        -0.000397438576
   28      15086.000000000000        -0.001109563970
   29       6592.600000000000        -0.002911419613
   30       3007.200000000000        -0.007122747174
   31       1422.900000000000        -0.016199879902
   32        693.380000000000        -0.033259689449
   33        347.150000000000        -0.057410624650
   34        177.900000000000        -0.074525771854
   35         92.353000000000        -0.036089815407
   36         45.341000000000         0.110209777766
   37         23.694000000000         0.219593882533
   38         12.583000000000         0.134993143349
   39          6.605000000000         0.021341890256
   40          3.354100000000        -0.000014442250
   41   81180000.000000000000         0.000000106315
   42   12174000.000000000000         0.000000825100
   43    2775000.000000000000         0.000004327963
   44     787190.000000000000         0.000018287180
   45     257190.000000000000         0.000066530354
   46      92980.000000000000         0.000217992879
   47      36316.000000000000         0.000653192827
   48      15086.000000000000         0.001832369744
   49       6592.600000000000         0.004792977441
   50       3007.200000000000         0.011831753021
   51       1422.900000000000         0.026918607512
   52        693.380000000000         0.056492789854
   53        347.150000000000         0.098972742295
   54        177.900000000000         0.137262479622
   55         92.353000000000         0.067743736996
   56         45.341000000000        -0.262321795541
   57         23.694000000000        -0.714301093654
   58         12.583000000000        -0.553834113351
   59          6.605000000000         0.440492608036
   60          3.354100000000         1.155602623527
   61   81180000.000000000000        -0.000000062705
   62   12174000.000000000000        -0.000000485834
   63    2775000.000000000000        -0.000002549226
   64     787190.000000000000        -0.000010767874
   65     257190.000000000000        -0.000039192981
   66      92980.000000000000        -0.000128348348
   67      36316.000000000000        -0.000384869165
   68      15086.000000000000        -0.001078903048
   69       6592.600000000000        -0.002825279701
   70       3007.200000000000        -0.006970671596
   71       1422.900000000000        -0.015895384530
   72        693.380000000000        -0.033376229158
   73        347.150000000000        -0.058820059879
   74        177.900000000000        -0.081939228847
   75         92.353000000000        -0.041341764222
   76         45.341000000000         0.164385702966
   77         23.694000000000         0.466002918489
   78         12.583000000000         0.390298473247
   79          6.605000000000        -0.359991205438
   80          3.354100000000        -1.274485610134
   81          1.662200000000         0.079667402895
   82          0.654060000000        -0.041571879719
   83          0.303170000000         0.021760506773
   84          0.129700000000        -0.005696646110
 S 84
    1   81180000.000000000000         0.000000079346
    2   12174000.000000000000         0.000000615485
    3    2775000.000000000000         0.000003231470
    4     787190.000000000000         0.000013635220
    5     257190.000000000000         0.000049662381
    6      92980.000000000000         0.000162226063
    7      36316.000000000000         0.000485830334
    8      15086.000000000000         0.001350470767
    9       6592.600000000000         0.003493447624
   10       3007.200000000000         0.008339938158
   11       1422.900000000000         0.017943084724
   12        693.380000000000         0.033263535402
   13        347.150000000000         0.047632292869
   14        177.900000000000         0.045083965200
   15         92.353000000000         0.021148738034
   16         45.341000000000         0.002600532661
   17         23.694000000000        -0.000178287672
   18         12.583000000000         0.000081225444
   19          6.605000000000        -0.000037750497
   20          3.354100000000         0.000017475336
   21   81180000.000000000000        -0.000000022025
   22   12174000.000000000000        -0.000000170806
   23    2775000.000000000000        -0.000000897256
   24     787190.000000000000        -0.000003783997
   25     257190.000000000000        -0.000013798796
   26      92980.000000000000        -0.000045076176
   27      36316.000000000000        -0.000135492043
   28      15086.000000000000        -0.000378264964
   29       6592.600000000000        -0.000992541274
   30       3007.200000000000        -0.002428238281
   31       1422.900000000000        -0.005522752326
   32        693.380000000000        -0.011338665989
   33        347.150000000000        -0.019572037740
   34        177.900000000000        -0.025406816738
   35         92.353000000000        -0.012303493186
   36         45.341000000000         0.037571964125
   37         23.694000000000         0.074862445454
   38         12.583000000000         0.046020939719
   39          6.605000000000         0.007275731349
   40          3.354100000000        -0.000004923553
   41   81180000.000000000000         0.000000277740
   42   12174000.000000000000         0.000002155503
   43    2775000.000000000000         0.000011306430
   44     787190.000000000000         0.000047773683
   45     257190.000000000000         0.000173804817
   46      92980.000000000000         0.000569487611
   47      36316.000000000000         0.001706409973
   48      15086.000000000000         0.004786908056
   49       6592.600000000000         0.012521240542
   50       3007.200000000000         0.030909435194
   51       1422.900000000000         0.070322542478
   52        693.380000000000         0.147582545358
   53        347.150000000000         0.258557760499
   54        177.900000000000         0.358586399739
   55         92.353000000000         0.176974675244
   56         45.341000000000        -0.685293085879
   57         23.694000000000        -1.866050053936
   58         12.583000000000        -1.446843895764
   59          6.605000000000         1.150748980068
   60          3.354100000000         3.018912272595
   61   81180000.000000000000        -0.000000153136
   62   12174000.000000000000        -0.000001186494
   63    2775000.000000000000        -0.000006225668
   64     787190.000000000000        -0.000026297082
   65     257190.000000000000        -0.000095716298
   66      92980.000000000000        -0.000313449711
   67      36316.000000000000        -0.000939919606
   68      15086.000000000000        -0.002634874969
   69       6592.600000000000        -0.006899840327
   70       3007.200000000000        -0.017023631669
   71       1422.900000000000        -0.038819383145
   72        693.380000000000        -0.081510744532
   73        347.150000000000        -0.143649147763
   74        177.900000000000        -0.200110309586
   75         92.353000000000        -0.100964011422
   76         45.341000000000         0.401459403207
   77         23.694000000000         1.138062800924
   78         12.583000000000         0.953178952398
   79          6.605000000000        -0.879163162534
   80          3.354100000000        -3.112522702450
   81          1.662200000000        -0.016460065673
   82          0.654060000000         0.032591690696
   83          0.303170000000        -0.021213330759
   84          0.129700000000         0.006058096258
 S 84
    1   81180000.000000000000         0.000000136859
    2   12174000.000000000000         0.000001061616
    3    2775000.000000000000         0.000005573779
    4     787190.000000000000         0.000023518615
    5     257190.000000000000         0.000085659812
    6      92980.000000000000         0.000279814495
    7      36316.000000000000         0.000837981068
    8      15086.000000000000         0.002329350097
    9       6592.600000000000         0.006025648800
   10       3007.200000000000         0.014385084242
   11       1422.900000000000         0.030949004706
   12        693.380000000000         0.057374377346
   13        347.150000000000         0.082158228579
   14        177.900000000000         0.077762763350
   15         92.353000000000         0.036478253489
   16         45.341000000000         0.004485510648
   17         23.694000000000        -0.000307518250
   18         12.583000000000         0.000140101141
   19          6.605000000000        -0.000065113682
   20          3.354100000000         0.000030142211
   21   81180000.000000000000        -0.000000293651
   22   12174000.000000000000        -0.000002277344
   23    2775000.000000000000        -0.000011963045
   24     787190.000000000000        -0.000050451722
   25     257190.000000000000        -0.000183978205
   26      92980.000000000000        -0.000600996933
   27      36316.000000000000        -0.001806504234
   28      15086.000000000000        -0.005043375580
   29       6592.600000000000        -0.013233470969
   30       3007.200000000000        -0.032375500773
   31       1422.900000000000        -0.073634401375
   32        693.380000000000        -0.151177498675
   33        347.150000000000        -0.260952365335
   34        177.900000000000        -0.338746992607
   35         92.353000000000        -0.164041460136
   36         45.341000000000         0.500943899610
   37         23.694000000000         0.998134812326
   38         12.583000000000         0.613593394530
   39          6.605000000000         0.097006726140
   40          3.354100000000        -0.000065645330
   41   81180000.000000000000         0.000000409136
   42   12174000.000000000000         0.000003175248
   43    2775000.000000000000         0.000016655378
   44     787190.000000000000         0.000070374886
   45     257190.000000000000         0.000256029962
   46      92980.000000000000         0.000838905926
   47      36316.000000000000         0.002513693731
   48      15086.000000000000         0.007051541517
   49       6592.600000000000         0.018444901490
   50       3007.200000000000         0.045532348440
   51       1422.900000000000         0.103591362546
   52        693.380000000000         0.217402221578
   53        347.150000000000         0.380878588334
   54        177.900000000000         0.528229674735
   55         92.353000000000         0.260699444286
   56         45.341000000000        -1.009497694601
   57         23.694000000000        -2.748857775273
   58         12.583000000000        -2.131329802267
   59          6.605000000000         1.695155644177
   60          3.354100000000         4.447126407935
   61   81180000.000000000000        -0.000000151512
   62   12174000.000000000000        -0.000001173907
   63    2775000.000000000000        -0.000006159624
   64     787190.000000000000        -0.000026018115
   65     257190.000000000000        -0.000094700912
   66      92980.000000000000        -0.000310124546
   67      36316.000000000000        -0.000929948665
   68      15086.000000000000        -0.002606923448
   69       6592.600000000000        -0.006826644814
   70       3007.200000000000        -0.016843040032
   71       1422.900000000000        -0.038407575837
   72        693.380000000000        -0.080646054845
   73        347.150000000000        -0.142125275821
   74        177.900000000000        -0.197987481216
   75         92.353000000000        -0.099892955822
   76         45.341000000000         0.397200605086
   77         23.694000000000         1.125989899704
   78         12.583000000000         0.943067352820
   79          6.605000000000        -0.869836743984
   80          3.354100000000        -3.079504156284
   81          1.662200000000        -0.984128805098
   82          0.654060000000         0.566017079798
   83          0.303170000000        -0.302828153421
   84          0.129700000000         0.079588244250
 S 84
    1   81180000.000000000000        -0.000000117896
    2   12174000.000000000000        -0.000000914521
    3    2775000.000000000000        -0.000004801488
    4     787190.000000000000        -0.000020259926
    5     257190.000000000000        -0.000073790972
    6      92980.000000000000        -0.000241043998
    7      36316.000000000000        -0.000721872206
    8      15086.000000000000        -0.002006600336
    9       6592.600000000000        -0.005190747806
   10       3007.200000000000        -0.012391917775
   11       1422.900000000000        -0.026660776890
   12        693.380000000000        -0.049424706487
   13        347.150000000000        -0.070774560367
   14        177.900000000000        -0.066988121387
   15         92.353000000000        -0.031423904803
   16         45.341000000000        -0.003864007898
   17         23.694000000000         0.000264909179
   18         12.583000000000        -0.000120689027
   19          6.605000000000         0.000056091670
   20          3.354100000000        -0.000025965771
   21   81180000.000000000000         0.000000211063
   22   12174000.000000000000         0.000001636853
   23    2775000.000000000000         0.000008598498
   24     787190.000000000000         0.000036262426
   25     257190.000000000000         0.000132235250
   26      92980.000000000000         0.000431969535
   27      36316.000000000000         0.001298433903
   28      15086.000000000000         0.003624951280
   29       6592.600000000000         0.009511623072
   30       3007.200000000000         0.023270052192
   31       1422.900000000000         0.052925092192
   32        693.380000000000         0.108659579019
   33        347.150000000000         0.187560810371
   34        177.900000000000         0.243476085617
   35         92.353000000000         0.117905615295
   36         45.341000000000        -0.360055919174
   37         23.694000000000        -0.717414360354
   38         12.583000000000        -0.441023303884
   39          6.605000000000        -0.069724066854
   40          3.354100000000         0.000047182908
   41   81180000.000000000000        -0.000000079336
   42   12174000.000000000000        -0.000000615713
   43    2775000.000000000000        -0.000003229648
   44     787190.000000000000        -0.000013646411
   45     257190.000000000000        -0.000049646832
   46      92980.000000000000        -0.000162672453
   47      36316.000000000000        -0.000487430964
   48      15086.000000000000        -0.001367366134
   49       6592.600000000000        -0.003576655344
   50       3007.200000000000        -0.008829188784
   51       1422.900000000000        -0.020087426361
   52        693.380000000000        -0.042156517777
   53        347.150000000000        -0.073856259900
   54        177.900000000000        -0.102429144980
   55         92.353000000000        -0.050552292785
   56         45.341000000000         0.195751944018
   57         23.694000000000         0.533031681219
   58         12.583000000000         0.413286681455
   59          6.605000000000        -0.328708044145
   60          3.354100000000        -0.862343365720
   61   81180000.000000000000        -0.000000073008
   62   12174000.000000000000        -0.000000565664
   63    2775000.000000000000        -0.000002968103
   64     787190.000000000000        -0.000012537200
   65     257190.000000000000        -0.000045632986
   66      92980.000000000000        -0.000149437938
   67      36316.000000000000        -0.000448109036
   68      15086.000000000000        -0.001256183267
   69       6592.600000000000        -0.003289516226
   70       3007.200000000000        -0.008116059206
   71       1422.900000000000        -0.018507238530
   72        693.380000000000        -0.038860452423
   73        347.150000000000        -0.068485092417
   74        177.900000000000        -0.095403093293
   75         92.353000000000        -0.048134846330
   76         45.341000000000         0.191396779990
   77         23.694000000000         0.542574302116
   78         12.583000000000         0.454430462422
   79          6.605000000000        -0.419143248484
   80          3.354100000000        -1.483903025151
   81          1.662200000000         3.767701366398
   82          0.654060000000        -1.367136702209
   83          0.303170000000         0.689468683996
   84          0.129700000000        -0.175150578848
 S 84
    1   81180000.000000000000        -0.000000082932
    2   12174000.000000000000        -0.000000643301
    3    2775000.000000000000        -0.000003377512
    4     787190.000000000000        -0.000014251445
    5     257190.000000000000        -0.000051906803
    6      92980.000000000000        -0.000169557641
    7      36316.000000000000        -0.000507786752
    8      15086.000000000000        -0.001411503390
    9       6592.600000000000        -0.003651329065
   10       3007.200000000000        -0.008716849909
   11       1422.900000000000        -0.018753997148
   12        693.380000000000        -0.034766834002
   13        347.150000000000        -0.049784967211
   14        177.900000000000        -0.047121471465
   15         92.353000000000        -0.022104525441
   16         45.341000000000        -0.002718060070
   17         23.694000000000         0.000186345132
   18         12.583000000000        -0.000084896313
   19          6.605000000000         0.000039456578
   20          3.354100000000        -0.000018265109
   21   81180000.000000000000         0.000000129623
   22   12174000.000000000000         0.000001005260
   23    2775000.000000000000         0.000005280700
   24     787190.000000000000         0.000022270283
   25     257190.000000000000         0.000081211236
   26      92980.000000000000         0.000265290684
   27      36316.000000000000         0.000797422945
   28      15086.000000000000         0.002226235251
   29       6592.600000000000         0.005841488323
   30       3007.200000000000         0.014291119100
   31       1422.900000000000         0.032503528125
   32        693.380000000000         0.066732423817
   33        347.150000000000         0.115188993019
   34        177.900000000000         0.149528918493
   35         92.353000000000         0.072410804103
   36         45.341000000000        -0.221125504194
   37         23.694000000000        -0.440594373544
   38         12.583000000000        -0.270850985192
   39          6.605000000000        -0.042820485976
   40          3.354100000000         0.000028977011
   41   81180000.000000000000         0.000000034756
   42   12174000.000000000000         0.000000269737
   43    2775000.000000000000         0.000001414871
   44     787190.000000000000         0.000005978333
   45     257190.000000000000         0.000021749696
   46      92980.000000000000         0.000071264896
   47      36316.000000000000         0.000213537796
   48      15086.000000000000         0.000599027088
   49       6592.600000000000         0.001566890814
   50       3007.200000000000         0.003867964194
   51       1422.900000000000         0.008800066214
   52        693.380000000000         0.018468276677
   53        347.150000000000         0.032355562416
   54        177.900000000000         0.044873008708
   55         92.353000000000         0.022146367372
   56         45.341000000000        -0.085756633918
   57         23.694000000000        -0.233514936375
   58         12.583000000000        -0.181056054500
   59          6.605000000000         0.144003144127
   60          3.354100000000         0.377782528272
   61   81180000.000000000000        -0.000000116994
   62   12174000.000000000000        -0.000000906464
   63    2775000.000000000000        -0.000004756319
   64     787190.000000000000        -0.000020090583
   65     257190.000000000000        -0.000073125843
   66      92980.000000000000        -0.000239470966
   67      36316.000000000000        -0.000718084745
   68      15086.000000000000        -0.002013005696
   69       6592.600000000000        -0.005271376457
   70       3007.200000000000        -0.013005804040
   71       1422.900000000000        -0.029657437377
   72        693.380000000000        -0.062273009142
   73        347.150000000000        -0.109745834654
   74        177.900000000000        -0.152881331288
   75         92.353000000000        -0.077135018732
   76         45.341000000000         0.306709075346
   77         23.694000000000         0.869463229827
   78         12.583000000000         0.728214690685
   79          6.605000000000        -0.671667716598
   80          3.354100000000        -2.377921534369
   81          1.662200000000         5.013549150377
   82          0.654060000000        -4.489962818623
   83          0.303170000000         1.512883473706
   84          0.129700000000        -0.345893876094
 S 84
    1   81180000.000000000000        -0.000000055609
    2   12174000.000000000000        -0.000000431358
    3    2775000.000000000000        -0.000002264752
    4     787190.000000000000        -0.000009556145
    5     257190.000000000000        -0.000034805519
    6      92980.000000000000        -0.000113694957
    7      36316.000000000000        -0.000340490659
    8      15086.000000000000        -0.000946467624
    9       6592.600000000000        -0.002448357381
   10       3007.200000000000        -0.005844985055
   11       1422.900000000000        -0.012575280543
   12        693.380000000000        -0.023312507072
   13        347.150000000000        -0.033382746330
   14        177.900000000000        -0.031596769402
   15         92.353000000000        -0.014821939371
   16         45.341000000000        -0.001822564419
   17         23.694000000000         0.000124951620
   18         12.583000000000        -0.000056926262
   19          6.605000000000         0.000026457162
   20          3.354100000000        -0.000012247462
   21   81180000.000000000000         0.000000086672
   22   12174000.000000000000         0.000000672163
   23    2775000.000000000000         0.000003530918
   24     787190.000000000000         0.000014890933
   25     257190.000000000000         0.000054301560
   26      92980.000000000000         0.000177385527
   27      36316.000000000000         0.000533193580
   28      15086.000000000000         0.001488563064
   29       6592.600000000000         0.003905887195
   30       3007.200000000000         0.009555698139
   31       1422.900000000000         0.021733350693
   32        693.380000000000         0.044620361329
   33        347.150000000000         0.077020647471
   34        177.900000000000         0.099981897715
   35         92.353000000000         0.048417187005
   36         45.341000000000        -0.147854660927
   37         23.694000000000        -0.294601619764
   38         12.583000000000        -0.181103399733
   39          6.605000000000        -0.028631742222
   40          3.354100000000         0.000019375359
   41   81180000.000000000000         0.000000015250
   42   12174000.000000000000         0.000000118352
   43    2775000.000000000000         0.000000620802
   44     787190.000000000000         0.000002623109
   45     257190.000000000000         0.000009543100
   46      92980.000000000000         0.000031268852
   47      36316.000000000000         0.000093693839
   48      15086.000000000000         0.000262834724
   49       6592.600000000000         0.000687503658
   50       3007.200000000000         0.001697144121
   51       1422.900000000000         0.003861199301
   52        693.380000000000         0.008103313686
   53        347.150000000000         0.014196628973
   54        177.900000000000         0.019688900701
   55         92.353000000000         0.009717147137
   56         45.341000000000        -0.037627382212
   57         23.694000000000        -0.102459196004
   58         12.583000000000        -0.079441846691
   59          6.605000000000         0.063184165425
   60          3.354100000000         0.165759393005
   61   81180000.000000000000        -0.000000067607
   62   12174000.000000000000        -0.000000523820
   63    2775000.000000000000        -0.000002748543
   64     787190.000000000000        -0.000011609783
   65     257190.000000000000        -0.000042257367
   66      92980.000000000000        -0.000138383533
   67      36316.000000000000        -0.000414960969
   68      15086.000000000000        -0.001163259351
   69       6592.600000000000        -0.003046180133
   70       3007.200000000000        -0.007515688209
   71       1422.900000000000        -0.017138198586
   72        693.380000000000        -0.035985819801
   73        347.150000000000        -0.063419029917
   74        177.900000000000        -0.088345819713
   75         92.353000000000        -0.044574156969
   76         45.341000000000         0.177238544737
   77         23.694000000000         0.502438336339
   78         12.583000000000         0.420814779894
   79          6.605000000000        -0.388137874637
   80          3.354100000000        -1.374133946886
   81          1.662200000000         3.895279332212
   82          0.654060000000        -6.325963731993
   83          0.303170000000         4.962654557632
   84          0.129700000000        -0.821464344079
 S 84
    1   81180000.000000000000        -0.000000033727
    2   12174000.000000000000        -0.000000261618
    3    2775000.000000000000        -0.000001373569
    4     787190.000000000000        -0.000005795788
    5     257190.000000000000        -0.000021109496
    6      92980.000000000000        -0.000068955824
    7      36316.000000000000        -0.000206507083
    8      15086.000000000000        -0.000574031220
    9       6592.600000000000        -0.001484925145
   10       3007.200000000000        -0.003544974826
   11       1422.900000000000        -0.007626889126
   12        693.380000000000        -0.014139001200
   13        347.150000000000        -0.020246586477
   14        177.900000000000        -0.019163394100
   15         92.353000000000        -0.008989484396
   16         45.341000000000        -0.001105382635
   17         23.694000000000         0.000075782973
   18         12.583000000000        -0.000034525694
   19          6.605000000000         0.000016046230
   20          3.354100000000        -0.000007428068
   21   81180000.000000000000         0.000000056311
   22   12174000.000000000000         0.000000436706
   23    2775000.000000000000         0.000002294044
   24     787190.000000000000         0.000009674665
   25     257190.000000000000         0.000035279818
   26      92980.000000000000         0.000115247686
   27      36316.000000000000         0.000346416797
   28      15086.000000000000         0.000967122016
   29       6592.600000000000         0.002537661714
   30       3007.200000000000         0.006208353725
   31       1422.900000000000         0.014120195802
   32        693.380000000000         0.028989926478
   33        347.150000000000         0.050040448821
   34        177.900000000000         0.064958413100
   35         92.353000000000         0.031456730733
   36         45.341000000000        -0.096061430746
   37         23.694000000000        -0.191403185514
   38         12.583000000000        -0.117663194263
   39          6.605000000000        -0.018602092794
   40          3.354100000000         0.000012588205
   41   81180000.000000000000        -0.000000015479
   42   12174000.000000000000        -0.000000120131
   43    2775000.000000000000        -0.000000630134
   44     787190.000000000000        -0.000002662542
   45     257190.000000000000        -0.000009686559
   46      92980.000000000000        -0.000031738910
   47      36316.000000000000        -0.000095102318
   48      15086.000000000000        -0.000266785860
   49       6592.600000000000        -0.000697838749
   50       3007.200000000000        -0.001722656915
   51       1422.900000000000        -0.003919243859
   52        693.380000000000        -0.008225129016
   53        347.150000000000        -0.014410043769
   54        177.900000000000        -0.019984879607
   55         92.353000000000        -0.009863222869
   56         45.341000000000         0.038193026358
   57         23.694000000000         0.103999442523
   58         12.583000000000         0.080636078469
   59          6.605000000000        -0.064133999063
   60          3.354100000000        -0.168251217438
   61   81180000.000000000000        -0.000000018895
   62   12174000.000000000000        -0.000000146400
   63    2775000.000000000000        -0.000000768177
   64     787190.000000000000        -0.000003244763
   65     257190.000000000000        -0.000011810311
   66      92980.000000000000        -0.000038676155
   67      36316.000000000000        -0.000115975467
   68      15086.000000000000        -0.000325113822
   69       6592.600000000000        -0.000851362394
   70       3007.200000000000        -0.002100523944
   71       1422.900000000000        -0.004789873593
   72        693.380000000000        -0.010057505584
   73        347.150000000000        -0.017724682973
   74        177.900000000000        -0.024691352871
   75         92.353000000000        -0.012457819082
   76         45.341000000000         0.049535557706
   77         23.694000000000         0.140424100415
   78         12.583000000000         0.117611520925
   79          6.605000000000        -0.108478808126
   80          3.354100000000        -0.384050159762
   81          1.662200000000         2.055770505590
   82          0.654060000000        -4.524766031774
   83          0.303170000000         5.910436777298
   84          0.129700000000        -3.317016906435
 S 84
    1   81180000.000000000000         0.000003912041
    2   12174000.000000000000         0.000030345679
    3    2775000.000000000000         0.000159323271
    4     787190.000000000000         0.000672266140
    5     257190.000000000000         0.002448536725
    6      92980.000000000000         0.007998337245
    7      36316.000000000000         0.023953209398
    8      15086.000000000000         0.066583139816
    9       6592.600000000000         0.172239723489
   10       3007.200000000000         0.411189402875
   11       1422.900000000000         0.884659592571
   12        693.380000000000         1.640013750666
   13        347.150000000000         2.348445958510
   14        177.900000000000         2.222804099729
   15         92.353000000000         1.042710005578
   16         45.341000000000         0.128215755551
   17         23.694000000000        -0.008790233223
   18         12.583000000000         0.004004710955
   19          6.605000000000        -0.001861237360
   20          3.354100000000         0.000861597853
   21   81180000.000000000000        -0.000008483103
   22   12174000.000000000000        -0.000065788740
   23    2775000.000000000000        -0.000345592725
   24     787190.000000000000        -0.001457467410
   25     257190.000000000000        -0.005314828236
   26      92980.000000000000        -0.017361814527
   27      36316.000000000000        -0.052186940934
   28      15086.000000000000        -0.145694838969
   29       6592.600000000000        -0.382293246125
   30       3007.200000000000        -0.935275054781
   31       1422.900000000000        -2.127176943561
   32        693.380000000000        -4.367269694080
   33        347.150000000000        -7.538485334876
   34        177.900000000000        -9.785844373280
   35         92.353000000000        -4.738888417290
   36         45.341000000000        14.471446679421
   37         23.694000000000        28.834475730096
   38         12.583000000000        17.725705610319
   39          6.605000000000         2.802365027257
   40          3.354100000000        -0.001896385800
   41   81180000.000000000000         0.000013763493
   42   12174000.000000000000         0.000106816674
   43    2775000.000000000000         0.000560293848
   44     787190.000000000000         0.002367440481
   45     257190.000000000000         0.008612954564
   46      92980.000000000000         0.028221144809
   47      36316.000000000000         0.084561704261
   48      15086.000000000000         0.237216794183
   49       6592.600000000000         0.620494169895
   50       3007.200000000000         1.531727169421
   51       1422.900000000000         3.484856590206
   52        693.380000000000         7.313501299425
   53        347.150000000000        12.812914378157
   54        177.900000000000        17.769866308262
   55         92.353000000000         8.770037908090
   56         45.341000000000       -33.959922983462
   57         23.694000000000       -92.472720680781
   58         12.583000000000       -71.698822418739
   59          6.605000000000        57.025742038925
   60          3.354100000000       149.603184949170
   61   81180000.000000000000        -0.000008207501
   62   12174000.000000000000        -0.000063591454
   63    2775000.000000000000        -0.000333671631
   64     787190.000000000000        -0.001409421495
   65     257190.000000000000        -0.005130021992
   66      92980.000000000000        -0.016799687654
   67      36316.000000000000        -0.050376041920
   68      15086.000000000000        -0.141219069233
   69       6592.600000000000        -0.369804655039
   70       3007.200000000000        -0.912400568508
   71       1422.900000000000        -2.080568232427
   72        693.380000000000        -4.368659466870
   73        347.150000000000        -7.699036647127
   74        177.900000000000       -10.725135727967
   75         92.353000000000        -5.411279050952
   76         45.341000000000        21.516665471047
   77         23.694000000000        60.995747955790
   78         12.583000000000        51.086691428676
   79          6.605000000000       -47.119732435162
   80          3.354100000000      -166.819133453097
   81          1.662200000000        12.671842140111
   82          0.654060000000        -7.049962478070
   83          0.303170000000         3.789348778963
   84          0.129700000000        -1.007975931075
 P 49
    1      97285.000000000000         0.000007773666
    2      23066.000000000000         0.000069361645
    3       7508.300000000000         0.000405767677
    4       2884.200000000000         0.001851159641
    5       1235.000000000000         0.007007207659
    6        565.950000000000         0.023502325639
    7        273.290000000000         0.065137303591
    8        137.780000000000         0.152675515854
    9         71.579000000000         0.276459200153
   10         38.347000000000         0.354153365470
   11         20.853000000000         0.283124366491
   12         11.399000000000         0.111508728652
   13          5.944400000000         0.013251710629
   14          3.115000000000        -0.000409932521
   15          1.606000000000         0.000189755373
   16      97285.000000000000        -0.000002503423
   17      23066.000000000000        -0.000022305422
   18       7508.300000000000        -0.000130870187
   19       2884.200000000000        -0.000597489359
   20       1235.000000000000        -0.002279033792
   21        565.950000000000        -0.007711521334
   22        273.290000000000        -0.021889065465
   23        137.780000000000        -0.052989392476
   24         71.579000000000        -0.102075175431
   25         38.347000000000        -0.133955367352
   26         20.853000000000        -0.091034230827
   27         11.399000000000         0.116051325876
   28          5.944400000000         0.340683843053
   29          3.115000000000         0.357081002696
   30          1.606000000000         0.163485966275
   31      97285.000000000000         0.000002183807
   32      23066.000000000000         0.000019529048
   33       7508.300000000000         0.000114198917
   34       2884.200000000000         0.000523299330
   35       1235.000000000000         0.001991082017
   36        565.950000000000         0.006767349699
   37        273.290000000000         0.019201564520
   38        137.780000000000         0.046868664439
   39         71.579000000000         0.090548305303
   40         38.347000000000         0.120520923914
   41         20.853000000000         0.077201164623
   42         11.399000000000        -0.129478560151
   43          5.944400000000        -0.399065759036
   44          3.115000000000        -0.437812132788
   45          1.606000000000        -0.088508100764
   46          0.782220000000        -0.011487740098
   47          0.365320000000        -0.013200955469
   48          0.160620000000         0.010621855815
   49          0.067693000000        -0.003649951770
 P 49
    1      97285.000000000000        -0.000005080930
    2      23066.000000000000        -0.000045335318
    3       7508.300000000000        -0.000265212953
    4       2884.200000000000        -0.001209932537
    5       1235.000000000000        -0.004579966175
    6        565.950000000000        -0.015361305346
    7        273.290000000000        -0.042574255214
    8        137.780000000000        -0.099789920960
    9         71.579000000000        -0.180695913014
   10         38.347000000000        -0.231477432059
   11         20.853000000000        -0.185052318285
   12         11.399000000000        -0.072882984258
   13          5.944400000000        -0.008661422553
   14          3.115000000000         0.000267935128
   15          1.606000000000        -0.000124025608
   16      97285.000000000000         0.000021235832
   17      23066.000000000000         0.000189210576
   18       7508.300000000000         0.001110134730
   19       2884.200000000000         0.005068332984
   20       1235.000000000000         0.019332398096
   21        565.950000000000         0.065414651117
   22        273.290000000000         0.185678742057
   23        137.780000000000         0.449494006627
   24         71.579000000000         0.865874799419
   25         38.347000000000         1.136305437116
   26         20.853000000000         0.772217593800
   27         11.399000000000        -0.984430524771
   28          5.944400000000        -2.889924538688
   29          3.115000000000        -3.029016999295
   30          1.606000000000        -1.386805142957
   31      97285.000000000000        -0.000019114565
   32      23066.000000000000        -0.000170935098
   33       7508.300000000000        -0.000999567566
   34       2884.200000000000        -0.004580367769
   35       1235.000000000000        -0.017427669744
   36        565.950000000000        -0.059233690303
   37        273.290000000000        -0.168068679277
   38        137.780000000000        -0.410235037029
   39         71.579000000000        -0.792556985001
   40         38.347000000000        -1.054903233880
   41         20.853000000000        -0.675731280307
   42         11.399000000000         1.133308203966
   43          5.944400000000         3.492968242086
   44          3.115000000000         3.832109974862
   45          1.606000000000         0.774699352518
   46          0.782220000000         0.221246572644
   47          0.365320000000        -0.037055105735
   48          0.160620000000        -0.003887780816
   49          0.067693000000         0.003581794165
 P 49
    1      97285.000000000000        -0.000016005907
    2      23066.000000000000        -0.000142814985
    3       7508.300000000000        -0.000835471893
    4       2884.200000000000        -0.003811520575
    5       1235.000000000000        -0.014427775740
    6        565.950000000000        -0.048391071053
    7        273.290000000000        -0.134117105458
    8        137.780000000000        -0.314357474625
    9         71.579000000000        -0.569226935379
   10         38.347000000000        -0.729198502958
   11         20.853000000000        -0.582950451205
   12         11.399000000000        -0.229595440641
   13          5.944400000000        -0.027285149584
   14          3.115000000000         0.000844047267
   15          1.606000000000        -0.000390704558
   16      97285.000000000000         0.000068670708
   17      23066.000000000000         0.000611853775
   18       7508.300000000000         0.003589863424
   19       2884.200000000000         0.016389563092
   20       1235.000000000000         0.062515537022
   21        565.950000000000         0.211532579835
   22        273.290000000000         0.600432818293
   23        137.780000000000         1.453537169714
   24         71.579000000000         2.799995521001
   25         38.347000000000         3.674492128134
   26         20.853000000000         2.497134464857
   27         11.399000000000        -3.183371385732
   28          5.944400000000        -9.345202989843
   29          3.115000000000        -9.794988879175
   30          1.606000000000        -4.484537708441
   31      97285.000000000000        -0.000054059396
   32      23066.000000000000        -0.000483434927
   33       7508.300000000000        -0.002826955258
   34       2884.200000000000        -0.012954096541
   35       1235.000000000000        -0.049288556673
   36        565.950000000000        -0.167523435114
   37        273.290000000000        -0.475328184744
   38        137.780000000000        -1.160217812787
   39         71.579000000000        -2.241492433963
   40         38.347000000000        -2.983454391361
   41         20.853000000000        -1.911088515861
   42         11.399000000000         3.205197623151
   43          5.944400000000         9.878736841491
   44          3.115000000000        10.837890116830
   45          1.606000000000         2.190987866018
   46          0.782220000000         0.499336556733
   47          0.365320000000        -0.113270781369
   48          0.160620000000         0.014981104326
   49          0.067693000000        -0.000284481866
 P 49
    1      97285.000000000000        -0.000024574731
    2      23066.000000000000        -0.000219271538
    3       7508.300000000000        -0.001282744989
    4       2884.200000000000        -0.005852032798
    5       1235.000000000000        -0.022151741062
    6        565.950000000000        -0.074297417357
    7        273.290000000000        -0.205917214521
    8        137.780000000000        -0.482649959657
    9         71.579000000000        -0.873964768053
   10         38.347000000000        -1.119577730590
   11         20.853000000000        -0.895035220943
   12         11.399000000000        -0.352510244253
   13          5.944400000000        -0.041892359523
   14          3.115000000000         0.001295911223
   15          1.606000000000        -0.000599869748
   16      97285.000000000000         0.000102931379
   17      23066.000000000000         0.000917115239
   18       7508.300000000000         0.005380890969
   19       2884.200000000000         0.024566520117
   20       1235.000000000000         0.093705316564
   21        565.950000000000         0.317068816827
   22        273.290000000000         0.899996224834
   23        137.780000000000         2.178724955636
   24         71.579000000000         4.196948137539
   25         38.347000000000         5.507741986694
   26         20.853000000000         3.742985930820
   27         11.399000000000        -4.771594993004
   28          5.944400000000       -14.007641079771
   29          3.115000000000       -14.681830747705
   30          1.606000000000        -6.721929389529
   31      97285.000000000000        -0.000079455140
   32      23066.000000000000        -0.000710540491
   33       7508.300000000000        -0.004154987706
   34       2884.200000000000        -0.019039605142
   35       1235.000000000000        -0.072443080389
   36        565.950000000000        -0.246221729669
   37        273.290000000000        -0.698625405626
   38        137.780000000000        -1.705258947582
   39         71.579000000000        -3.294489178521
   40         38.347000000000        -4.385006194097
   41         20.853000000000        -2.808869813390
   42         11.399000000000         4.710918816631
   43          5.944400000000        14.519518838708
   44          3.115000000000        15.929258188380
   45          1.606000000000         3.220258835363
   46          0.782220000000         2.779443352623
   47          0.365320000000        -0.158761184879
   48          0.160620000000         0.031580935643
   49          0.067693000000        -0.004332323430
 P 49
    1      97285.000000000000        -0.000028897457
    2      23066.000000000000        -0.000257841674
    3       7508.300000000000        -0.001508381430
    4       2884.200000000000        -0.006881412655
    5       1235.000000000000        -0.026048259901
    6        565.950000000000        -0.087366425596
    7        273.290000000000        -0.242138308991
    8        137.780000000000        -0.567548688621
    9         71.579000000000        -1.027696259132
   10         38.347000000000        -1.316512847649
   11         20.853000000000        -1.052473030924
   12         11.399000000000        -0.414517235211
   13          5.944400000000        -0.049261277733
   14          3.115000000000         0.001523863621
   15          1.606000000000        -0.000705387584
   16      97285.000000000000         0.000120045388
   17      23066.000000000000         0.001069600505
   18       7508.300000000000         0.006275551264
   19       2884.200000000000         0.028651102068
   20       1235.000000000000         0.109285343484
   21        565.950000000000         0.369786644191
   22        273.290000000000         1.049635177298
   23        137.780000000000         2.540973275208
   24         71.579000000000         4.894758756644
   25         38.347000000000         6.423493318293
   26         20.853000000000         4.365317978797
   27         11.399000000000        -5.564949961202
   28          5.944400000000       -16.336638335335
   29          3.115000000000       -17.122922957545
   30          1.606000000000        -7.839559046882
   31      97285.000000000000        -0.000092154167
   32      23066.000000000000        -0.000824103604
   33       7508.300000000000        -0.004819064341
   34       2884.200000000000        -0.022082636268
   35       1235.000000000000        -0.084021395528
   36        565.950000000000        -0.285574456869
   37        273.290000000000        -0.810284173678
   38        137.780000000000        -1.977804308464
   39         71.579000000000        -3.821035450777
   40         38.347000000000        -5.085845850932
   41         20.853000000000        -3.257801301505
   42         11.399000000000         5.463847907420
   43          5.944400000000        16.840120942766
   44          3.115000000000        18.475173826403
   45          1.606000000000         3.734941140746
   46          0.782220000000         5.260168851947
   47          0.365320000000        -3.303668700741
   48          0.160620000000         0.376054483766
   49          0.067693000000        -0.077192097340
 P 49
    1      97285.000000000000        -0.000021471636
    2      23066.000000000000        -0.000191583727
    3       7508.300000000000        -0.001120770474
    4       2884.200000000000        -0.005113086099
    5       1235.000000000000        -0.019354600907
    6        565.950000000000        -0.064915748939
[...]
  BAS[ATNO][ 13].a[ 38] =        71.579000000000;     BAS[ATNO][ 13].d[ 38] =        -2.824705695657;
  BAS[ATNO][ 13].a[ 39] =        38.347000000000;     BAS[ATNO][ 13].d[ 39] =        -3.759718518037;
  BAS[ATNO][ 13].a[ 40] =        20.853000000000;     BAS[ATNO][ 13].d[ 40] =        -2.408334078609;
  BAS[ATNO][ 13].a[ 41] =        11.399000000000;     BAS[ATNO][ 13].d[ 41] =         4.039157056539;
  BAS[ATNO][ 13].a[ 42] =         5.944400000000;     BAS[ATNO][ 13].d[ 42] =        12.449082494879;
  BAS[ATNO][ 13].a[ 43] =         3.115000000000;     BAS[ATNO][ 13].d[ 43] =        13.657797580778;
  BAS[ATNO][ 13].a[ 44] =         1.606000000000;     BAS[ATNO][ 13].d[ 44] =         2.761060358930;
  BAS[ATNO][ 13].a[ 45] =         0.782220000000;     BAS[ATNO][ 13].d[ 45] =         4.776778684974;
  BAS[ATNO][ 13].a[ 46] =         0.365320000000;     BAS[ATNO][ 13].d[ 46] =        -5.115962178652;
  BAS[ATNO][ 13].a[ 47] =         0.160620000000;     BAS[ATNO][ 13].d[ 47] =         3.277530309185;
  BAS[ATNO][ 13].a[ 48] =         0.067693000000;     BAS[ATNO][ 13].d[ 48] =        -0.461787958562;

  // Basis function  15 L = p
  InitBFNGauss(BAS[ATNO][ 14]);
  BAS[ATNO][ 14].l  = 1;
  BAS[ATNO][ 14].ng = 49;
  BAS[ATNO][ 14].a[  0] =     97285.000000000000;     BAS[ATNO][ 14].d[  0] =        -0.000009655818;
  BAS[ATNO][ 14].a[  1] =     23066.000000000000;     BAS[ATNO][ 14].d[  1] =        -0.000086155407;
  BAS[ATNO][ 14].a[  2] =      7508.300000000000;     BAS[ATNO][ 14].d[  2] =        -0.000504011685;
  BAS[ATNO][ 14].a[  3] =      2884.200000000000;     BAS[ATNO][ 14].d[  3] =        -0.002299360305;
  BAS[ATNO][ 14].a[  4] =      1235.000000000000;     BAS[ATNO][ 14].d[  4] =        -0.008703784795;
  BAS[ATNO][ 14].a[  5] =       565.950000000000;     BAS[ATNO][ 14].d[  5] =        -0.029192681950;
  BAS[ATNO][ 14].a[  6] =       273.290000000000;     BAS[ATNO][ 14].d[  6] =        -0.080908273335;
  BAS[ATNO][ 14].a[  7] =       137.780000000000;     BAS[ATNO][ 14].d[  7] =        -0.189641137832;
  BAS[ATNO][ 14].a[  8] =        71.579000000000;     BAS[ATNO][ 14].d[  8] =        -0.343395186765;
  BAS[ATNO][ 14].a[  9] =        38.347000000000;     BAS[ATNO][ 14].d[  9] =        -0.439900574883;
  BAS[ATNO][ 14].a[ 10] =        20.853000000000;     BAS[ATNO][ 14].d[ 10] =        -0.351674115584;
  BAS[ATNO][ 14].a[ 11] =        11.399000000000;     BAS[ATNO][ 14].d[ 11] =        -0.138507095008;
  BAS[ATNO][ 14].a[ 12] =         5.944400000000;     BAS[ATNO][ 14].d[ 12] =        -0.016460199711;
  BAS[ATNO][ 14].a[ 13] =         3.115000000000;     BAS[ATNO][ 14].d[ 13] =         0.000509184915;
  BAS[ATNO][ 14].a[ 14] =         1.606000000000;     BAS[ATNO][ 14].d[ 14] =        -0.000235698728;
  BAS[ATNO][ 14].a[ 15] =     97285.000000000000;     BAS[ATNO][ 14].d[ 15] =         0.000039939646;
  BAS[ATNO][ 14].a[ 16] =     23066.000000000000;     BAS[ATNO][ 14].d[ 16] =         0.000355860949;
  BAS[ATNO][ 14].a[ 17] =      7508.300000000000;     BAS[ATNO][ 14].d[ 17] =         0.002087904428;
  BAS[ATNO][ 14].a[ 18] =      2884.200000000000;     BAS[ATNO][ 14].d[ 18] =         0.009532351876;
  BAS[ATNO][ 14].a[ 19] =      1235.000000000000;     BAS[ATNO][ 14].d[ 19] =         0.036359730476;
  BAS[ATNO][ 14].a[ 20] =       565.950000000000;     BAS[ATNO][ 14].d[ 20] =         0.123029697192;
  BAS[ATNO][ 14].a[ 21] =       273.290000000000;     BAS[ATNO][ 14].d[ 21] =         0.349218394047;
  BAS[ATNO][ 14].a[ 22] =       137.780000000000;     BAS[ATNO][ 14].d[ 22] =         0.845393357309;
  BAS[ATNO][ 14].a[ 23] =        71.579000000000;     BAS[ATNO][ 14].d[ 23] =         1.628508484868;
  BAS[ATNO][ 14].a[ 24] =        38.347000000000;     BAS[ATNO][ 14].d[ 24] =         2.137125421581;
  BAS[ATNO][ 14].a[ 25] =        20.853000000000;     BAS[ATNO][ 14].d[ 25] =         1.452361131785;
  BAS[ATNO][ 14].a[ 26] =        11.399000000000;     BAS[ATNO][ 14].d[ 26] =        -1.851484144623;
  BAS[ATNO][ 14].a[ 27] =         5.944400000000;     BAS[ATNO][ 14].d[ 27] =        -5.435273823699;
  BAS[ATNO][ 14].a[ 28] =         3.115000000000;     BAS[ATNO][ 14].d[ 28] =        -5.696874291148;
  BAS[ATNO][ 14].a[ 29] =         1.606000000000;     BAS[ATNO][ 14].d[ 29] =        -2.608256925459;
  BAS[ATNO][ 14].a[ 30] =     97285.000000000000;     BAS[ATNO][ 14].d[ 30] =        -0.000030575492;
  BAS[ATNO][ 14].a[ 31] =     23066.000000000000;     BAS[ATNO][ 14].d[ 31] =        -0.000273426307;
  BAS[ATNO][ 14].a[ 32] =      7508.300000000000;     BAS[ATNO][ 14].d[ 32] =        -0.001598899651;
  BAS[ATNO][ 14].a[ 33] =      2884.200000000000;     BAS[ATNO][ 14].d[ 33] =        -0.007326716751;
  BAS[ATNO][ 14].a[ 34] =      1235.000000000000;     BAS[ATNO][ 14].d[ 34] =        -0.027877150111;
  BAS[ATNO][ 14].a[ 35] =       565.950000000000;     BAS[ATNO][ 14].d[ 35] =        -0.094749699787;
  BAS[ATNO][ 14].a[ 36] =       273.290000000000;     BAS[ATNO][ 14].d[ 36] =        -0.268841208837;
  BAS[ATNO][ 14].a[ 37] =       137.780000000000;     BAS[ATNO][ 14].d[ 37] =        -0.656208424653;
  BAS[ATNO][ 14].a[ 38] =        71.579000000000;     BAS[ATNO][ 14].d[ 38] =        -1.267767312959;
  BAS[ATNO][ 14].a[ 39] =        38.347000000000;     BAS[ATNO][ 14].d[ 39] =        -1.687414108458;
  BAS[ATNO][ 14].a[ 40] =        20.853000000000;     BAS[ATNO][ 14].d[ 40] =        -1.080893924007;
  BAS[ATNO][ 14].a[ 41] =        11.399000000000;     BAS[ATNO][ 14].d[ 41] =         1.812830021924;
  BAS[ATNO][ 14].a[ 42] =         5.944400000000;     BAS[ATNO][ 14].d[ 42] =         5.587321853601;
  BAS[ATNO][ 14].a[ 43] =         3.115000000000;     BAS[ATNO][ 14].d[ 43] =         6.129810042348;
  BAS[ATNO][ 14].a[ 44] =         1.606000000000;     BAS[ATNO][ 14].d[ 44] =         1.239202398161;
  BAS[ATNO][ 14].a[ 45] =         0.782220000000;     BAS[ATNO][ 14].d[ 45] =         2.342768855571;
  BAS[ATNO][ 14].a[ 46] =         0.365320000000;     BAS[ATNO][ 14].d[ 46] =        -3.153915619185;
  BAS[ATNO][ 14].a[ 47] =         0.160620000000;     BAS[ATNO][ 14].d[ 47] =         3.456014328273;
  BAS[ATNO][ 14].a[ 48] =         0.067693000000;     BAS[ATNO][ 14].d[ 48] =        -2.281534376696;

  // Basis function  16 L = d
  InitBFNGauss(BAS[ATNO][ 15]);
  BAS[ATNO][ 15].l  = 2;
  BAS[ATNO][ 15].ng = 13;
  BAS[ATNO][ 15].a[  0] =      2219.700000000000;     BAS[ATNO][ 15].d[  0] =        -0.000066131148;
  BAS[ATNO][ 15].a[  1] =       670.130000000000;     BAS[ATNO][ 15].d[  1] =        -0.000671045782;
  BAS[ATNO][ 15].a[  2] =       263.090000000000;     BAS[ATNO][ 15].d[  2] =        -0.003995200180;
  BAS[ATNO][ 15].a[  3] =       116.690000000000;     BAS[ATNO][ 15].d[  3] =        -0.018282609361;
  BAS[ATNO][ 15].a[  4] =        54.856000000000;     BAS[ATNO][ 15].d[  4] =        -0.064420357433;
  BAS[ATNO][ 15].a[  5] =        27.847000000000;     BAS[ATNO][ 15].d[  5] =        -0.153754873103;
  BAS[ATNO][ 15].a[  6] =        14.745000000000;     BAS[ATNO][ 15].d[  6] =        -0.299759928771;
  BAS[ATNO][ 15].a[  7] =         7.882700000000;     BAS[ATNO][ 15].d[  7] =        -0.428929822777;
  BAS[ATNO][ 15].a[  8] =         4.170300000000;     BAS[ATNO][ 15].d[  8] =        -0.470255912355;
  BAS[ATNO][ 15].a[  9] =         2.168200000000;     BAS[ATNO][ 15].d[  9] =         0.639060603550;
  BAS[ATNO][ 15].a[ 10] =         1.103200000000;     BAS[ATNO][ 15].d[ 10] =        -0.471682941765;
  BAS[ATNO][ 15].a[ 11] =         0.523790000000;     BAS[ATNO][ 15].d[ 11] =         0.216449836040;
  BAS[ATNO][ 15].a[ 12] =         0.218000000000;     BAS[ATNO][ 15].d[ 12] =        -0.059606763656;

  // Basis function  17 L = d
  InitBFNGauss(BAS[ATNO][ 16]);
  BAS[ATNO][ 16].l  = 2;
  BAS[ATNO][ 16].ng = 13;
  BAS[ATNO][ 16].a[  0] =      2219.700000000000;     BAS[ATNO][ 16].d[  0] =        -0.000029917566;
  BAS[ATNO][ 16].a[  1] =       670.130000000000;     BAS[ATNO][ 16].d[  1] =        -0.000303579435;
  BAS[ATNO][ 16].a[  2] =       263.090000000000;     BAS[ATNO][ 16].d[  2] =        -0.001807418578;
  BAS[ATNO][ 16].a[  3] =       116.690000000000;     BAS[ATNO][ 16].d[  3] =        -0.008271006789;
  BAS[ATNO][ 16].a[  4] =        54.856000000000;     BAS[ATNO][ 16].d[  4] =        -0.029143608726;
  BAS[ATNO][ 16].a[  5] =        27.847000000000;     BAS[ATNO][ 16].d[  5] =        -0.069558320382;
  BAS[ATNO][ 16].a[  6] =        14.745000000000;     BAS[ATNO][ 16].d[  6] =        -0.135610642721;
  BAS[ATNO][ 16].a[  7] =         7.882700000000;     BAS[ATNO][ 16].d[  7] =        -0.194046779993;
  BAS[ATNO][ 16].a[  8] =         4.170300000000;     BAS[ATNO][ 16].d[  8] =        -0.212742599650;
  BAS[ATNO][ 16].a[  9] =         2.168200000000;     BAS[ATNO][ 16].d[  9] =         1.792397868015;
  BAS[ATNO][ 16].a[ 10] =         1.103200000000;     BAS[ATNO][ 16].d[ 10] =        -0.874703508338;
  BAS[ATNO][ 16].a[ 11] =         0.523790000000;     BAS[ATNO][ 16].d[ 11] =         0.386568167336;
  BAS[ATNO][ 16].a[ 12] =         0.218000000000;     BAS[ATNO][ 16].d[ 12] =        -0.103119446724;

  // Basis function  18 L = d
  InitBFNGauss(BAS[ATNO][ 17]);
  BAS[ATNO][ 17].l  = 2;
  BAS[ATNO][ 17].ng = 13;
  BAS[ATNO][ 17].a[  0] =      2219.700000000000;     BAS[ATNO][ 17].d[  0] =         0.000015810035;
  BAS[ATNO][ 17].a[  1] =       670.130000000000;     BAS[ATNO][ 17].d[  1] =         0.000160427536;
  BAS[ATNO][ 17].a[  2] =       263.090000000000;     BAS[ATNO][ 17].d[  2] =         0.000955136205;
  BAS[ATNO][ 17].a[  3] =       116.690000000000;     BAS[ATNO][ 17].d[  3] =         0.004370840340;
  BAS[ATNO][ 17].a[  4] =        54.856000000000;     BAS[ATNO][ 17].d[  4] =         0.015401034472;
  BAS[ATNO][ 17].a[  5] =        27.847000000000;     BAS[ATNO][ 17].d[  5] =         0.036758319811;
  BAS[ATNO][ 17].a[  6] =        14.745000000000;     BAS[ATNO][ 17].d[  6] =         0.071663883596;
  BAS[ATNO][ 17].a[  7] =         7.882700000000;     BAS[ATNO][ 17].d[  7] =         0.102544649701;
  BAS[ATNO][ 17].a[  8] =         4.170300000000;     BAS[ATNO][ 17].d[  8] =         0.112424516183;
  BAS[ATNO][ 17].a[  9] =         2.168200000000;     BAS[ATNO][ 17].d[  9] =        -1.742599808002;
  BAS[ATNO][ 17].a[ 10] =         1.103200000000;     BAS[ATNO][ 17].d[ 10] =         2.369222970203;
  BAS[ATNO][ 17].a[ 11] =         0.523790000000;     BAS[ATNO][ 17].d[ 11] =        -0.476055322677;
  BAS[ATNO][ 17].a[ 12] =         0.218000000000;     BAS[ATNO][ 17].d[ 12] =         0.125600981148;

  // Basis function  19 L = d
  InitBFNGauss(BAS[ATNO][ 18]);
  BAS[ATNO][ 18].l  = 2;
  BAS[ATNO][ 18].ng = 13;
  BAS[ATNO][ 18].a[  0] =      2219.700000000000;     BAS[ATNO][ 18].d[  0] =         0.000008881907;
  BAS[ATNO][ 18].a[  1] =       670.130000000000;     BAS[ATNO][ 18].d[  1] =         0.000090126461;
  BAS[ATNO][ 18].a[  2] =       263.090000000000;     BAS[ATNO][ 18].d[  2] =         0.000536585228;
  BAS[ATNO][ 18].a[  3] =       116.690000000000;     BAS[ATNO][ 18].d[  3] =         0.002455491006;
  BAS[ATNO][ 18].a[  4] =        54.856000000000;     BAS[ATNO][ 18].d[  4] =         0.008652135217;
  BAS[ATNO][ 18].a[  5] =        27.847000000000;     BAS[ATNO][ 18].d[  5] =         0.020650427992;
  BAS[ATNO][ 18].a[  6] =        14.745000000000;     BAS[ATNO][ 18].d[  6] =         0.040259997613;
  BAS[ATNO][ 18].a[  7] =         7.882700000000;     BAS[ATNO][ 18].d[  7] =         0.057608479264;
  BAS[ATNO][ 18].a[  8] =         4.170300000000;     BAS[ATNO][ 18].d[  8] =         0.063158881797;
  BAS[ATNO][ 18].a[  9] =         2.168200000000;     BAS[ATNO][ 18].d[  9] =        -1.298311684951;
  BAS[ATNO][ 18].a[ 10] =         1.103200000000;     BAS[ATNO][ 18].d[ 10] =         2.755665927460;
  BAS[ATNO][ 18].a[ 11] =         0.523790000000;     BAS[ATNO][ 18].d[ 11] =        -2.336678895699;
  BAS[ATNO][ 18].a[ 12] =         0.218000000000;     BAS[ATNO][ 18].d[ 12] =         0.217382069226;

  // Basis function  20 L = d
  InitBFNGauss(BAS[ATNO][ 19]);
  BAS[ATNO][ 19].l  = 2;
  BAS[ATNO][ 19].ng = 13;
  BAS[ATNO][ 19].a[  0] =      2219.700000000000;     BAS[ATNO][ 19].d[  0] =        -0.000004270941;
  BAS[ATNO][ 19].a[  1] =       670.130000000000;     BAS[ATNO][ 19].d[  1] =        -0.000043338081;
  BAS[ATNO][ 19].a[  2] =       263.090000000000;     BAS[ATNO][ 19].d[  2] =        -0.000258021607;
  BAS[ATNO][ 19].a[  3] =       116.690000000000;     BAS[ATNO][ 19].d[  3] =        -0.001180743901;
  BAS[ATNO][ 19].a[  4] =        54.856000000000;     BAS[ATNO][ 19].d[  4] =        -0.004160453392;
  BAS[ATNO][ 19].a[  5] =        27.847000000000;     BAS[ATNO][ 19].d[  5] =        -0.009929935331;
  BAS[ATNO][ 19].a[  6] =        14.745000000000;     BAS[ATNO][ 19].d[  6] =        -0.019359364990;
  BAS[ATNO][ 19].a[  7] =         7.882700000000;     BAS[ATNO][ 19].d[  7] =        -0.027701531117;
  BAS[ATNO][ 19].a[  8] =         4.170300000000;     BAS[ATNO][ 19].d[  8] =        -0.030370489756;
  BAS[ATNO][ 19].a[  9] =         2.168200000000;     BAS[ATNO][ 19].d[  9] =         0.689915342795;
  BAS[ATNO][ 19].a[ 10] =         1.103200000000;     BAS[ATNO][ 19].d[ 10] =        -1.754809606406;
  BAS[ATNO][ 19].a[ 11] =         0.523790000000;     BAS[ATNO][ 19].d[ 11] =         2.349927351108;
  BAS[ATNO][ 19].a[ 12] =         0.218000000000;     BAS[ATNO][ 19].d[ 12] =        -1.795117916085;

  // Basis function  21 L = f
  InitBFNGauss(BAS[ATNO][ 20]);
  BAS[ATNO][ 20].l  = 3;
  BAS[ATNO][ 20].ng = 4;
  BAS[ATNO][ 20].a[  0] =         8.460000000000;     BAS[ATNO][ 20].d[  0] =         0.821839642811;
  BAS[ATNO][ 20].a[  1] =         2.490000000000;     BAS[ATNO][ 20].d[  1] =         0.320494498106;
  BAS[ATNO][ 20].a[  2] =         0.730000000000;     BAS[ATNO][ 20].d[  2] =        -0.050238365420;
  BAS[ATNO][ 20].a[  3] =         0.293000000000;     BAS[ATNO][ 20].d[  3] =         0.019155454782;

  // Basis function  22 L = f
  InitBFNGauss(BAS[ATNO][ 21]);
  BAS[ATNO][ 21].l  = 3;
  BAS[ATNO][ 21].ng = 4;
  BAS[ATNO][ 21].a[  0] =         8.460000000000;     BAS[ATNO][ 21].d[  0] =        -0.703563488011;
  BAS[ATNO][ 21].a[  1] =         2.490000000000;     BAS[ATNO][ 21].d[  1] =         0.961026186237;
  BAS[ATNO][ 21].a[  2] =         0.730000000000;     BAS[ATNO][ 21].d[  2] =         0.217816883823;
  BAS[ATNO][ 21].a[  3] =         0.293000000000;     BAS[ATNO][ 21].d[  3] =        -0.056309003482;

  // Basis function  23 L = f
  InitBFNGauss(BAS[ATNO][ 22]);
  BAS[ATNO][ 22].l  = 3;
  BAS[ATNO][ 22].ng = 4;
  BAS[ATNO][ 22].a[  0] =         8.460000000000;     BAS[ATNO][ 22].d[  0] =         0.353273946914;
  BAS[ATNO][ 22].a[  1] =         2.490000000000;     BAS[ATNO][ 22].d[  1] =        -0.785634235028;
  BAS[ATNO][ 22].a[  2] =         0.730000000000;     BAS[ATNO][ 22].d[  2] =         1.209876608399;
  BAS[ATNO][ 22].a[  3] =         0.293000000000;     BAS[ATNO][ 22].d[  3] =        -0.122786640746;

  // Basis function  24 L = f
  InitBFNGauss(BAS[ATNO][ 23]);
  BAS[ATNO][ 23].l  = 3;
  BAS[ATNO][ 23].ng = 4;
  BAS[ATNO][ 23].a[  0] =         8.460000000000;     BAS[ATNO][ 23].d[  0] =        -0.119354202314;
  BAS[ATNO][ 23].a[  1] =         2.490000000000;     BAS[ATNO][ 23].d[  1] =         0.318702290891;
  BAS[ATNO][ 23].a[  2] =         0.730000000000;     BAS[ATNO][ 23].d[  2] =        -0.891136432319;
  BAS[ATNO][ 23].a[  3] =         0.293000000000;     BAS[ATNO][ 23].d[  3] =         1.338168749037;

  // Basis function  25 L = g
  InitBFNGauss(BAS[ATNO][ 24]);
  BAS[ATNO][ 24].l  = 4;
  BAS[ATNO][ 24].ng = 2;
  BAS[ATNO][ 24].a[  0] =         2.250000000000;     BAS[ATNO][ 24].d[  0] =         0.994119788172;
  BAS[ATNO][ 24].a[  1] =         0.560000000000;     BAS[ATNO][ 24].d[  1] =         0.019606495201;

  // Basis function  26 L = g
  InitBFNGauss(BAS[ATNO][ 25]);
  BAS[ATNO][ 25].l  = 4;
  BAS[ATNO][ 25].ng = 2;
  BAS[ATNO][ 25].a[  0] =         2.250000000000;     BAS[ATNO][ 25].d[  0] =        -0.322796370522;
  BAS[ATNO][ 25].a[  1] =         0.560000000000;     BAS[ATNO][ 25].d[  1] =         1.045029777281;

  // Basis function  27 L = h
  InitBFNGauss(BAS[ATNO][ 26]);
  BAS[ATNO][ 26].l  = 5;
  BAS[ATNO][ 26].ng = 1;
  BAS[ATNO][ 26].a[  0] =         0.840000000000;     BAS[ATNO][ 26].d[  0] =         1.000000000000;

-------
TIMINGS
-------

Total SCF time: 0 days 0 hours 0 min 11 sec 

Total time                  ....      11.727 sec
Sum of individual times     ....      11.343 sec  ( 96.7%)

Fock matrix formation       ....      10.405 sec  ( 88.7%)
  XC integration            ....       0.059 sec  (  0.6% of F)
    Basis function eval.    ....       0.014 sec  ( 24.3% of XC)
    Density eval.           ....       0.005 sec  (  8.3% of XC)
    XC-Functional eval.     ....       0.002 sec  (  4.0% of XC)
    XC-Potential eval.      ....       0.012 sec  ( 20.4% of XC)
Diagonalization             ....       0.005 sec  (  0.0%)
Density matrix formation    ....       0.002 sec  (  0.0%)
Population analysis         ....       0.002 sec  (  0.0%)
Initial guess               ....       0.081 sec  (  0.7%)
Orbital Transformation      ....       0.000 sec  (  0.0%)
Orbital Orthonormalization  ....       0.000 sec  (  0.0%)
DIIS solution               ....       0.001 sec  (  0.0%)
SOSCF solution              ....       0.002 sec  (  0.0%)
Grid generation             ....       0.846 sec  (  7.2%)

-------------------------   --------------------
FINAL SINGLE POINT ENERGY     -1281.523257427582
-------------------------   --------------------


                            ***************************************
                            *     ORCA property calculations      *
                            ***************************************

                                    ---------------------
                                    Active property flags
                                    ---------------------
   (+) Dipole Moment


------------------------------------------------------------------------------
                       ORCA ELECTRIC PROPERTIES CALCULATION
------------------------------------------------------------------------------

Dipole Moment Calculation                       ... on
Quadrupole Moment Calculation                   ... off
Polarizability Calculation                      ... off
GBWName                                         ... Kr_pc-4_274.071978_.gbw
Electron density file                           ... Kr_pc-4_274.071978_.scfp
The origin for moment calculation is the CENTER OF MASS  = ( 0.000000,  0.000000  0.000000)

-------------
DIPOLE MOMENT
-------------
                                X             Y             Z
Electronic contribution:     -0.00000       0.00000       0.00000
Nuclear contribution   :      0.00000       0.00000       0.00000
                        -----------------------------------------
Total Dipole Moment    :     -0.00000       0.00000       0.00000
                        -----------------------------------------
Magnitude (a.u.)       :      0.00000
Magnitude (Debye)      :      0.00000



--------------------
Rotational spectrum 
--------------------
 
Rotational constants in cm-1:     0.000000     0.000000     0.000000 
Rotational constants in MHz :     0.000000     0.000000     0.000000 

 Dipole components along the rotational axes: 
x,y,z [a.u.] :    -0.000000     0.000000     0.000000 
x,y,z [Debye]:    -0.000000     0.000000     0.000000 

 

Timings for individual modules:

Sum of individual times         ...       14.853 sec (=   0.248 min)
GTO integral calculation        ...        2.286 sec (=   0.038 min)  15.4 %
Relativistic integrals          ...        0.535 sec (=   0.009 min)   3.6 %
SCF iterations                  ...       12.031 sec (=   0.201 min)  81.0 %
                             ****ORCA TERMINATED NORMALLY****
TOTAL RUN TIME: 0 days 0 hours 0 minutes 15 seconds 264 msec
