
                                 *****************
                                 * O   R   C   A *
                                 *****************

           --- An Ab Initio, DFT and Semiempirical electronic structure package ---

                  #######################################################
                  #                        -***-                        #
                  #          Department of theory and spectroscopy      #
                  #               Directorship: Frank Neese             #
                  #        Max Planck Institute fuer Kohlenforschung    #
                  #                Kaiser Wilhelm Platz 1               #
                  #                 D-45470 Muelheim/Ruhr               #
                  #                      Germany                        #
                  #                                                     #
                  #                  All rights reserved                #
                  #                        -***-                        #
                  #######################################################


                         Program Version 4.2.1 -  RELEASE  -


 With contributions from (in alphabetic order):
   Daniel Aravena         : Magnetic Suceptibility
   Michael Atanasov       : Ab Initio Ligand Field Theory (pilot matlab implementation)
   Alexander A. Auer      : GIAO ZORA, VPT2
   Ute Becker             : Parallelization
   Giovanni Bistoni       : ED, misc. LED, open-shell LED, HFLD
   Martin Brehm           : Molecular dynamics
   Dmytro Bykov           : SCF Hessian
   Vijay G. Chilkuri      : MRCI spin determinant printing, contributions to CSF-ICE
   Dipayan Datta          : RHF DLPNO-CCSD density
   Achintya Kumar Dutta   : EOM-CC, STEOM-CC
   Dmitry Ganyushin       : Spin-Orbit,Spin-Spin,Magnetic field MRCI
   Miquel Garcia          : C-PCM Hessian, Gaussian charge scheme
   Yang Guo               : DLPNO-NEVPT2, CIM, IAO-localization
   Andreas Hansen         : Spin unrestricted coupled pair/coupled cluster methods
   Benjamin Helmich-Paris : CASSCF linear response (MC-RPA)
   Lee Huntington         : MR-EOM, pCC
   Robert Izsak           : Overlap fitted RIJCOSX, COSX-SCS-MP3, EOM
   Christian Kollmar      : KDIIS, OOCD, Brueckner-CCSD(T), CCSD density
   Simone Kossmann        : Meta GGA functionals, TD-DFT gradient, OOMP2, MP2 Hessian
   Martin Krupicka        : AUTO-CI
   Lucas Lang             : DCDCAS
   Dagmar Lenk            : GEPOL surface, SMD
   Dimitrios Liakos       : Extrapolation schemes; Compound Job, initial MDCI parallelization
   Dimitrios Manganas     : Further ROCIS development; embedding schemes
   Dimitrios Pantazis     : SARC Basis sets
   Taras Petrenko         : DFT Hessian,TD-DFT gradient, ASA, ECA, R-Raman, ABS, FL, XAS/XES, NRVS
   Peter Pinski           : DLPNO-MP2, DLPNO-MP2 Gradient
   Christoph Reimann      : Effective Core Potentials
   Marius Retegan         : Local ZFS, SOC
   Christoph Riplinger    : Optimizer, TS searches, QM/MM, DLPNO-CCSD(T), (RO)-DLPNO pert. Triples
   Tobias Risthaus        : Range-separated hybrids, TD-DFT gradient, RPA, STAB
   Michael Roemelt        : Original ROCIS implementation
   Masaaki Saitow         : Open-shell DLPNO-CCSD energy and density
   Barbara Sandhoefer     : DKH picture change effects
   Avijit Sen             : IP-ROCIS
   Kantharuban Sivalingam : CASSCF convergence, NEVPT2, FIC-MRCI
   Bernardo de Souza      : ESD, SOC TD-DFT
   Georgi Stoychev        : AutoAux, RI-MP2 NMR
   Willem Van den Heuvel  : Paramagnetic NMR
   Boris Wezisla          : Elementary symmetry handling
   Frank Wennmohs         : Technical directorship


 We gratefully acknowledge several colleagues who have allowed us to
 interface, adapt or use parts of their codes:
   Stefan Grimme, W. Hujo, H. Kruse,             : VdW corrections, initial TS optimization,
                  C. Bannwarth                     DFT functionals, gCP, sTDA/sTD-DF
   Ed Valeev, F. Pavosevic, A. Kumar             : LibInt (2-el integral package), F12 methods
   Garnet Chan, S. Sharma, J. Yang, R. Olivares  : DMRG
   Ulf Ekstrom                                   : XCFun DFT Library
   Mihaly Kallay                                 : mrcc  (arbitrary order and MRCC methods)
   Andreas Klamt, Michael Diedenhofen            : otool_cosmo (COSMO solvation model)
   Jiri Pittner, Ondrej Demel                    : Mk-CCSD
   Frank Weinhold                                : gennbo (NPA and NBO analysis)
   Christopher J. Cramer and Donald G. Truhlar   : smd solvation model
   Lars Goerigk                                  : TD-DFT with DH, B97 family of functionals
   V. Asgeirsson, H. Jonsson                     : NEB implementation
   FAccTs GmbH                                   : IRC, NEB, NEB-TS, Multilevel, MM, QM/MM, CI optimization
   S Lehtola, MJT Oliveira, MAL Marques          : LibXC Library


 Your calculation uses the libint2 library for the computation of 2-el integrals
 For citations please refer to: http://libint.valeyev.net

 Your ORCA version has been built with support for libXC version: 4.2.3
 For citations please refer to: https://tddft.org/programs/libxc/

 This ORCA versions uses:
   CBLAS   interface :  Fast vector & matrix operations
   LAPACKE interface :  Fast linear algebra routines
   SCALAPACK package :  Parallel linear algebra routines


----- Orbital basis set information -----
Your calculation utilizes the basis: pc-2
   H, C-F              : F. Jensen, J. Chem. Phys. 115, 9113 (2001).
                         F. Jensen, J. Chem. Phys. 116, 7372 (2002).
                         F. Jensen, J. Chem. Phys. 117, 9234 (2002).
   Si-Cl               : F. Jensen, T. Helgaker, J. Chem. Phys. 121, 3463 (2004).
   He-B, Ne-Mg, Al, Ar : F. Jensen, J. Phys. Chem. A 111, 11198 (2007).
   K, Ca, Ga-Kr        : F. Jensen, J. Chem. Phys. 136, 094110 (2012).
   Sc-Zn               : F. Jensen, J. Chem. Phys. 138, 014107 (2013).

================================================================================
                                        WARNINGS
                       Please study these warnings very carefully!
================================================================================


INFO   : the flag for use of LIBINT has been found!

================================================================================
                                       INPUT FILE
================================================================================
NAME = Kr_pc-2_274.071978_.inp
|  1> ! LDA pc-2 nori grid5 finalgrid6 verytightscf
|  2> %Pal NProcs 18 End
|  3> 
|  4> % REL
|  5>   Method ZORA
|  6>   ModelPot 1, 0, 0, 0
|  7>   velit 274.071978
|  8> END
|  9> 
| 10> *xyz 34 1
| 11> Kr 0.0 0.0 0.0
| 12> **                         ****END OF INPUT****
================================================================================

                       ****************************
                       * Single Point Calculation *
                       ****************************

---------------------------------
CARTESIAN COORDINATES (ANGSTROEM)
---------------------------------
  Kr     0.000000    0.000000    0.000000

----------------------------
CARTESIAN COORDINATES (A.U.)
----------------------------
  NO LB      ZA    FRAG     MASS         X           Y           Z
   0 Kr   36.0000    0    83.800    0.000000    0.000000    0.000000

--------------------------------
INTERNAL COORDINATES (ANGSTROEM)
--------------------------------
 Kr     0   0   0     0.000000000000     0.00000000     0.00000000

---------------------------
INTERNAL COORDINATES (A.U.)
---------------------------
 Kr     0   0   0     0.000000000000     0.00000000     0.00000000

---------------------
BASIS SET INFORMATION
---------------------
There are 1 groups of distinct atoms

 Group   1 Type Kr  : 58s35p9d1f contracted to 6s5p3d1f pattern {1414141411/11111111/711/1}

Atom   0Kr   basis set group =>   1


           ************************************************************
           *        Program running with 18 parallel MPI-processes    *
           *              working on a common directory               *
           ************************************************************
------------------------------------------------------------------------------
                           ORCA GTO INTEGRAL CALCULATION
------------------------------------------------------------------------------

                         BASIS SET STATISTICS AND STARTUP INFO

 # of primitive gaussian shells          ...  103
 # of primitive gaussian functions       ...  215
 # of contracted shells                  ...   15
 # of contracted basis functions         ...   43
 Highest angular momentum                ...    3
 Maximum contraction depth               ...   14
 Integral package used                   ... LIBINT
 Integral threshhold            Thresh   ...  1.000e-12
 Primitive cut-off              TCut     ...  1.000e-14


------------------------------ INTEGRAL EVALUATION ----------------------------


 * One electron integrals 
 Pre-screening matrix                    ... done
 Shell pair data                         ... done (   0.000 sec)



           ************************************************************
           *        Program running with 18 parallel MPI-processes    *
           *              working on a common directory               *
           ************************************************************
------------------------------------------------------------------------------
                          ORCA RELATIVISTIC HAMILTONIAN
------------------------------------------------------------------------------

Relativistic Method            ... ZORA(MP)
Treatment of potential         ... Van Wuellen
Nucleus model                  ... Point Nucleus
Speed of light used            ... 274.07197800000000


            *************************************************
            *         ZERO ORDER REGULAR APPROXIMATION      *
            *                     ZORA(MP)                  *
            *            Programmed by FN according to      *
            *                   C. van Wuellen              *
            *       J. Chem. Phys. (1998) vol 109, 392-399  *
            *************************************************

Terms included in model potential: +V(e,N)
Basis function cutoff value   ... 1.000000e-12
Loading the fitted atomic densities  (DKH4)  ... done
Calculating the cutoffs                      ... done
Number of fit functions                      ... 27
Setting up the integration grid ... done


           ************************************************************
           *        Program running with 18 parallel MPI-processes    *
           *              working on a common directory               *
           ************************************************************
-------------------------------------------------------------------------------
                                 ORCA SCF
-------------------------------------------------------------------------------

------------
SCF SETTINGS
------------
Hamiltonian:
 Density Functional     Method          .... DFT(GTOs)
 Exchange Functional    Exchange        .... Slater
   X-Alpha parameter    XAlpha          ....  0.666667
 Correlation Functional Correlation     .... VWN-5
 Gradients option       PostSCFGGA      .... off
   Density functional embedding theory  .... OFF

Relativistic Settings:
 Scalar relativistic method             .... ZORA
 Speed of light used       Velit        ....       274.071978
Orbital energies will be scaled


General Settings:
 Integral files         IntName         .... Kr_pc-2_274.071978_
 Hartree-Fock type      HFTyp           .... RHF
 Total Charge           Charge          ....   34
 Multiplicity           Mult            ....    1
 Number of Electrons    NEL             ....    2
 Basis Dimension        Dim             ....   43
 Nuclear Repulsion      ENuc            ....      0.0000000000 Eh

Convergence Acceleration:
 DIIS                   CNVDIIS         .... on
   Start iteration      DIISMaxIt       ....    12
   Startup error        DIISStart       ....  0.200000
   # of expansion vecs  DIISMaxEq       ....     5
   Bias factor          DIISBfac        ....   1.050
   Max. coefficient     DIISMaxC        ....  10.000
 Newton-Raphson         CNVNR           .... off
 SOSCF                  CNVSOSCF        .... on
   Start iteration      SOSCFMaxIt      ....   150
   Startup grad/error   SOSCFStart      ....  0.003300
 Level Shifting         CNVShift        .... on
   Level shift para.    LevelShift      ....    0.2500
   Turn off err/grad.   ShiftErr        ....    0.0010
 Zerner damping         CNVZerner       .... off
 Static damping         CNVDamp         .... on
   Fraction old density DampFac         ....    0.7000
   Max. Damping (<1)    DampMax         ....    0.9800
   Min. Damping (>=0)   DampMin         ....    0.0000
   Turn off err/grad.   DampErr         ....    0.1000
 Fernandez-Rico         CNVRico         .... off

SCF Procedure:
 Maximum # iterations   MaxIter         ....   125
 SCF integral mode      SCFMode         .... Direct
   Integral package                     .... LIBINT
 Reset frequency        DirectResetFreq ....    20
 Integral Threshold     Thresh          ....  1.000e-12 Eh
 Primitive CutOff       TCut            ....  1.000e-14 Eh

Convergence Tolerance:
 Convergence Check Mode ConvCheckMode   .... Total+1el-Energy
 Convergence forced     ConvForced      .... 0
 Energy Change          TolE            ....  1.000e-09 Eh
 1-El. energy change                    ....  1.000e-06 Eh
 Orbital Gradient       TolG            ....  2.000e-06
 Orbital Rotation angle TolX            ....  2.000e-06
 DIIS Error             TolErr          ....  1.000e-08


Diagonalization of the overlap matrix:
Smallest eigenvalue                        ... 3.309e-04
Time for diagonalization                   ...    0.001 sec
Threshold for overlap eigenvalues          ... 1.000e-08
Number of eigenvalues below threshold      ... 0
Time for construction of square roots      ...    0.001 sec
Total time needed                          ...    0.002 sec

-------------------
DFT GRID GENERATION
-------------------

General Integration Accuracy     IntAcc      ...  5.010
Radial Grid Type                 RadialGrid  ... Gauss-Chebyshev
Angular Grid (max. acc.)         AngularGrid ... Lebedev-434
Angular grid pruning method      GridPruning ... 3 (G Style)
Weight generation scheme         WeightScheme... Becke
Basis function cutoff            BFCut       ...    1.0000e-12
Integration weight cutoff        WCut        ...    1.0000e-14
Grids for H and He will be reduced by one unit

# of grid points (after initial pruning)     ...  16106 (   0.0 sec)
# of grid points (after weights+screening)   ...  16106 (   0.0 sec)
Grid point division into batches done        ...    0.2 sec
Reduced shell lists constructed in    0.2 sec

Total number of grid points                  ...    16106
Total number of batches                      ...      252
Average number of points per batch           ...       63
Average number of grid points per atom       ...    16106
Average number of shells per batch           ...     0.53 ( 3.56%)
Average number of basis functions per batch  ...     1.60 ( 3.72%)
Average number of large shells per batch     ...     0.53 (100.00%)
Average number of large basis fcns per batch ...     1.60 (100.00%)
Maximum spatial batch extension              ...  17.34, 17.34, 17.34 au
Average spatial batch extension              ...   0.86,  0.87,  0.87 au

Time for grid setup =    0.267 sec

------------------------------
INITIAL GUESS: MODEL POTENTIAL
------------------------------
Loading ZORA relativistic densities                ... done
Calculating cut-offs                               ... done
Setting up the integral package                    ... done
Initializing the effective Hamiltonian             ... done
Starting the Coulomb interaction                   ... done (   0.0 sec)
Reading the grid                                   ... done
Mapping shells                                     ... done
Starting the XC term evaluation                    ... done (   0.0 sec)
  promolecular density results
     # of electrons  =     36.000000565
     EX              =    -91.042004939
     EC              =     -3.295965580
     EX+EC           =    -94.337970520
Transforming the Hamiltonian                       ... done (   0.0 sec)
Diagonalizing the Hamiltonian                      ... done (   0.0 sec)
Back transforming the eigenvectors                 ... done (   0.0 sec)
Now organizing SCF variables                       ... done
                      ------------------
                      INITIAL GUESS DONE (   0.3 sec)
                      ------------------
--------------
SCF ITERATIONS
--------------
ITER       Energy         Delta-E        Max-DP      RMS-DP      [F,P]     Damp
               ***  Starting incremental Fock matrix formation  ***
  0  -1281.3968622362   0.000000000000 0.04348999  0.00148487  5.9829464 0.7000
                      *** Initiating the SOSCF procedure ***
                      *** Re-Reading the Fockian *** 
                      *** Removing any level shift *** 
ITER      Energy       Delta-E        Grad      Rot      Max-DP    RMS-DP
  1  -1281.41096373  -0.0141014920  0.002221  0.002221  0.101249  0.003457
               *** Restarting incremental Fock matrix formation ***
  2  -1281.44372365  -0.0327599171  0.008953  0.000019  0.000680  0.000024
  3  -1281.44372408  -0.0000004382  0.000039  0.000000  0.000003  0.000000
                 **** Energy Check signals convergence ****
              ***Rediagonalizing the Fockian in SOSCF/NRSCF***

               *****************************************************
               *                     SUCCESS                       *
               *           SCF CONVERGED AFTER   4 CYCLES          *
               *****************************************************

Setting up the final grid:

General Integration Accuracy     IntAcc      ...  5.340
Radial Grid Type                 RadialGrid  ... Gauss-Chebyshev
Angular Grid (max. acc.)         AngularGrid ... Lebedev-590
Angular grid pruning method      GridPruning ... 3 (G Style)
Weight generation scheme         WeightScheme... Becke
Basis function cutoff            BFCut       ...    1.0000e-12
Integration weight cutoff        WCut        ...    1.0000e-14
Grids for H and He will be reduced by one unit

# of grid points (after initial pruning)     ...  24180 (   0.0 sec)
# of grid points (after weights+screening)   ...  24180 (   0.0 sec)
Grid point division into batches done        ...    0.4 sec
Reduced shell lists constructed in    0.4 sec

Total number of grid points                  ...    24180
Total number of batches                      ...      378
Average number of points per batch           ...       63
Average number of grid points per atom       ...    24180
Average number of shells per batch           ...     0.14 ( 0.91%)
Average number of basis functions per batch  ...     0.41 ( 0.95%)
Average number of large shells per batch     ...     0.14 (100.00%)
Average number of large basis fcns per batch ...     0.41 (100.00%)
Maximum spatial batch extension              ...  17.58, 17.58, 17.58 au
Average spatial batch extension              ...   0.77,  0.77,  0.77 au

Final grid set up in    0.4 sec
Final integration                            ... done (   0.0 sec)
Change in XC energy                          ...     0.000004033
Integrated number of electrons               ...     2.000000016
Previous integrated no of electrons          ...     2.000000030

----------------
TOTAL SCF ENERGY
----------------

Total Energy       :        -1281.44372005 Eh          -34869.85637 eV

Components:
Nuclear Repulsion  :            0.00000000 Eh               0.00000 eV
Electronic Energy  :        -1281.44372005 Eh          -34869.85637 eV
One Electron Energy:        -1306.59618876 Eh          -35554.28984 eV
Two Electron Energy:           25.15246871 Eh             684.43347 eV

Virial components:
Potential Energy   :        -2543.28992338 Eh          -69206.43720 eV
Kinetic Energy     :         1261.84620332 Eh           34336.58083 eV
Virial Ratio       :            2.01553083


DFT components:
N(Alpha)           :        1.000000007845 electrons
N(Beta)            :        1.000000007845 electrons
N(Total)           :        2.000000015689 electrons
E(X)               :      -19.100730623523 Eh       
E(C)               :       -0.278064597840 Eh       
E(XC)              :      -19.378795221363 Eh       
DFET-embed. en.    :        0.000000000000 Eh       

---------------
SCF CONVERGENCE
---------------

  Last Energy change         ...   -7.7307e-12  Tolerance :   1.0000e-09
  Last MAX-Density change    ...    0.0000e+00  Tolerance :   1.0000e-08
  Last RMS-Density change    ...    0.0000e+00  Tolerance :   1.0000e-09
  Last Orbital Gradient      ...    2.6320e-11  Tolerance :   2.0000e-06
  Last Orbital Rotation      ...    0.0000e+00  Tolerance :   2.0000e-06

================================================================================
                                        WARNING
Number of found core electrons (2) does not match given number of chemical core electrons (18)
================================================================================
             **** THE GBW FILE WAS UPDATED (Kr_pc-2_274.071978_.gbw) ****
             **** DENSITY FILE WAS UPDATED (Kr_pc-2_274.071978_.scfp) ****
             **** ENERGY FILE WAS UPDATED (Kr_pc-2_274.071978_.en.tmp) ****
             **** THE GBW FILE WAS UPDATED (Kr_pc-2_274.071978_.gbw) ****
             **** DENSITY FILE WAS UPDATED (Kr_pc-2_274.071978_.scfp) ****
----------------
ORBITAL ENERGIES
----------------

  NO   OCC          E(Eh)            E(eV) 
   0   2.0000    -621.649524    -16915.9435 
   1   0.0000    -149.390327     -4065.1175 
   2   0.0000    -146.792564     -3994.4287 
   3   0.0000    -146.792564     -3994.4287 
   4   0.0000    -146.792564     -3994.4287 
   5   0.0000     -63.665553     -1732.4278 
   6   0.0000     -59.397882     -1616.2985 
   7   0.0000     -59.397882     -1616.2985 
   8   0.0000     -59.397882     -1616.2985 
   9   0.0000     -56.296985     -1531.9188 
  10   0.0000     -56.296985     -1531.9188 
  11   0.0000     -56.296985     -1531.9188 
  12   0.0000     -56.296985     -1531.9188 
  13   0.0000     -56.296985     -1531.9188 
  14   0.0000     -32.065666      -872.5511 
  15   0.0000     -26.884552      -731.5659 
  16   0.0000     -26.884552      -731.5659 
  17   0.0000     -26.884552      -731.5659 
  18   0.0000     -22.903747      -623.2427 
  19   0.0000     -22.903747      -623.2427 
  20   0.0000     -22.903747      -623.2427 
  21   0.0000     -22.903747      -623.2427 
  22   0.0000     -22.903747      -623.2427 
  23   0.0000     -18.158136      -494.1080 
  24   0.0000     -16.402824      -446.3435 
  25   0.0000     -16.402824      -446.3435 
  26   0.0000     -16.402824      -446.3435 
  27   0.0000     -16.402824      -446.3435 
  28   0.0000     -16.402824      -446.3435 
  29   0.0000     -16.402824      -446.3435 
  30   0.0000     -16.402824      -446.3435 
  31   0.0000     -14.453293      -393.2941 
  32   0.0000     -14.453293      -393.2941 
  33   0.0000     -14.453293      -393.2941 
  34   0.0000     -12.465064      -339.1916 
  35   0.0000     -12.465064      -339.1916 
  36   0.0000     -12.465064      -339.1916 
  37   0.0000     -12.465064      -339.1916 
  38   0.0000     -12.465064      -339.1916 
  39   0.0000     -11.478850      -312.3554 
  40   0.0000      -8.315421      -226.2741 
  41   0.0000      -8.315421      -226.2741 
  42   0.0000      -8.315421      -226.2741 

                    ********************************
                    * MULLIKEN POPULATION ANALYSIS *
                    ********************************

-----------------------
MULLIKEN ATOMIC CHARGES
-----------------------
   0 Kr:   34.000000
Sum of atomic charges:   34.0000000

--------------------------------
MULLIKEN REDUCED ORBITAL CHARGES
--------------------------------
  0 Krs       :     2.000000  s :     2.000000
      pz      :     0.000000  p :     0.000000
      px      :     0.000000
      py      :     0.000000
      dz2     :     0.000000  d :     0.000000
      dxz     :     0.000000
      dyz     :     0.000000
      dx2y2   :     0.000000
      dxy     :     0.000000
      f0      :     0.000000  f :     0.000000
      f+1     :     0.000000
      f-1     :     0.000000
      f+2     :     0.000000
      f-2     :     0.000000
      f+3     :     0.000000
      f-3     :     0.000000


                     *******************************
                     * LOEWDIN POPULATION ANALYSIS *
                     *******************************

----------------------
LOEWDIN ATOMIC CHARGES
----------------------
   0 Kr:   34.000000

-------------------------------
LOEWDIN REDUCED ORBITAL CHARGES
-------------------------------
  0 Krs       :     2.000000  s :     2.000000
      pz      :     0.000000  p :     0.000000
      px      :     0.000000
      py      :     0.000000
      dz2     :     0.000000  d :     0.000000
      dxz     :     0.000000
      dyz     :     0.000000
      dx2y2   :     0.000000
      dxy     :     0.000000
      f0      :     0.000000  f :     0.000000
      f+1     :     0.000000
      f-1     :     0.000000
      f+2     :     0.000000
      f-2     :     0.000000
      f+3     :     0.000000
      f-3     :     0.000000


                      *****************************
                      * MAYER POPULATION ANALYSIS *
                      *****************************

  NA   - Mulliken gross atomic population
  ZA   - Total nuclear charge
  QA   - Mulliken gross atomic charge
  VA   - Mayer's total valence
  BVA  - Mayer's bonded valence
  FA   - Mayer's free valence

  ATOM       NA         ZA         QA         VA         BVA        FA
  0 Kr     2.0000    36.0000    34.0000     0.0000     0.0000     0.0000

  Mayer bond orders larger than 0.100000


--------------------------
ATOM BASIS FOR ELEMENT Kr
--------------------------
 NewGTO Kr
 S 58
    1    1931600.000000000000         0.000054096756
    2     289380.000000000000         0.000420306338
    3      65857.000000000000         0.002203890628
    4      18650.000000000000         0.009207303746
    5       6081.800000000000         0.032452514531
    6       2193.200000000000         0.096742851439
    7        852.720000000000         0.231475062751
    8        351.460000000000         0.384663425205
    9        150.290000000000         0.330495121667
   10         61.400000000000         0.074230039815
   11         29.044000000000        -0.007383614447
   12         13.399000000000         0.003034840559
   13          4.835800000000        -0.001114062212
   14          2.081300000000         0.000479259855
   15    1931600.000000000000        -0.000000649989
   16     289380.000000000000        -0.000005051753
   17      65857.000000000000        -0.000026537643
   18      18650.000000000000        -0.000111493606
   19       6081.800000000000        -0.000399484353
   20       2193.200000000000        -0.001242365192
   21        852.720000000000        -0.003292286108
   22        351.460000000000        -0.006825118778
   23        150.290000000000        -0.008671877848
   24         61.400000000000         0.002797385870
   25         29.044000000000         0.022935408220
   26         13.399000000000         0.017650631458
   27          4.835800000000         0.001576304736
   28          2.081300000000        -0.000246918018
   29    1931600.000000000000         0.000001144161
   30     289380.000000000000         0.000008921122
   31      65857.000000000000         0.000046660965
   32      18650.000000000000         0.000197367436
   33       6081.800000000000         0.000703243246
   34       2193.200000000000         0.002220405990
   35        852.720000000000         0.005889477876
   36        351.460000000000         0.012807078702
   37        150.290000000000         0.016836015961
   38         61.400000000000        -0.005675453151
   39         29.044000000000        -0.074691948198
   40         13.399000000000        -0.068150566201
   41          4.835800000000         0.105785853472
   42          2.081300000000         0.111703927554
   43    1931600.000000000000        -0.000000578982
   44     289380.000000000000        -0.000004505920
   45      65857.000000000000        -0.000023633086
   46      18650.000000000000        -0.000099616918
   47       6081.800000000000        -0.000356668137
   48       2193.200000000000        -0.001120642948
   49        852.720000000000        -0.003000661797
   50        351.460000000000        -0.006487746664
   51        150.290000000000        -0.008777851747
   52         61.400000000000         0.003347348785
   53         29.044000000000         0.040361743900
   54         13.399000000000         0.042405984232
   55          4.835800000000        -0.088036258529
   56          2.081300000000        -0.126343654606
   57          0.515380000000         0.006188572744
   58          0.191030000000        -0.002510480995
 S 58
    1    1931600.000000000000         0.000004085877
    2     289380.000000000000         0.000031745338
    3      65857.000000000000         0.000166457763
    4      18650.000000000000         0.000695418895
    5       6081.800000000000         0.002451107556
    6       2193.200000000000         0.007306895554
    7        852.720000000000         0.017483091326
    8        351.460000000000         0.029053262640
    9        150.290000000000         0.024961982195
   10         61.400000000000         0.005606524305
   11         29.044000000000        -0.000557677376
   12         13.399000000000         0.000229218621
   13          4.835800000000        -0.000084144059
   14          2.081300000000         0.000036198041
   15    1931600.000000000000         0.000007247061
   16     289380.000000000000         0.000056324546
   17      65857.000000000000         0.000295881591
   18      18650.000000000000         0.001243098534
   19       6081.800000000000         0.004454052836
   20       2193.200000000000         0.013851757054
   21        852.720000000000         0.036707360767
   22        351.460000000000         0.076096696648
   23        150.290000000000         0.096687146322
   24         61.400000000000        -0.031189468031
   25         29.044000000000        -0.255718450997
   26         13.399000000000        -0.196795805518
   27          4.835800000000        -0.017575017700
   28          2.081300000000         0.002753013700
   29    1931600.000000000000         0.000013819299
   30     289380.000000000000         0.000107750269
   31      65857.000000000000         0.000563576111
   32      18650.000000000000         0.002383824951
   33       6081.800000000000         0.008493846985
   34       2193.200000000000         0.026818300531
   35        852.720000000000         0.071133742362
   36        351.460000000000         0.154685263434
   37        150.290000000000         0.203347197649
   38         61.400000000000        -0.068548728889
   39         29.044000000000        -0.902137322052
   40         13.399000000000        -0.823129812138
   41          4.835800000000         1.277692828538
   42          2.081300000000         1.349171958921
   43    1931600.000000000000        -0.000006787652
   44     289380.000000000000        -0.000052824774
   45      65857.000000000000        -0.000277060488
   46      18650.000000000000        -0.001167850525
   47       6081.800000000000        -0.004181368786
   48       2193.200000000000        -0.013137762967
   49        852.720000000000        -0.035178005194
   50        351.460000000000        -0.076058550176
   51        150.290000000000        -0.102906403740
   52         61.400000000000         0.039242360825
   53         29.044000000000         0.473177496385
   54         13.399000000000         0.497142975291
   55          4.835800000000        -1.032085642900
   56          2.081300000000        -1.481179166045
   57          0.515380000000         0.042940712282
   58          0.191030000000        -0.016276767470
 S 58
    1    1931600.000000000000         0.000023548129
    2     289380.000000000000         0.000182957880
    3      65857.000000000000         0.000959345889
    4      18650.000000000000         0.004007907146
    5       6081.800000000000         0.014126466171
    6       2193.200000000000         0.042111825166
    7        852.720000000000         0.100760285932
    8        351.460000000000         0.167442644796
    9        150.290000000000         0.143863371556
   10         61.400000000000         0.032312076937
   11         29.044000000000        -0.003214061567
   12         13.399000000000         0.001321055490
   13          4.835800000000        -0.000484947388
   14          2.081300000000         0.000208620140
   15    1931600.000000000000        -0.000050642139
   16     289380.000000000000        -0.000393593419
   17      65857.000000000000        -0.002067607380
   18      18650.000000000000        -0.008686717193
   19       6081.800000000000        -0.031124722852
   20       2193.200000000000        -0.096795461394
   21        852.720000000000        -0.256509402253
   22        351.460000000000        -0.531760327159
   23        150.290000000000        -0.675645472474
   24         61.400000000000         0.217950613559
   25         29.044000000000         1.786949146982
   26         13.399000000000         1.375200324535
   27          4.835800000000         0.122813440974
   28          2.081300000000        -0.019237937127
   29    1931600.000000000000         0.000074656582
   30     289380.000000000000         0.000582103842
   31      65857.000000000000         0.003044631085
   32      18650.000000000000         0.012878238466
   33       6081.800000000000         0.045886669206
   34       2193.200000000000         0.144881640480
   35        852.720000000000         0.384288828262
   36        351.460000000000         0.835662748234
   37        150.290000000000         1.098551175852
   38         61.400000000000        -0.370323700522
   39         29.044000000000        -4.873654652634
   40         13.399000000000        -4.446829036539
   41          4.835800000000         6.902534066847
   42          2.081300000000         7.288688799441
   43    1931600.000000000000        -0.000034636731
   44     289380.000000000000        -0.000269559719
   45      65857.000000000000        -0.001413812912
   46      18650.000000000000        -0.005959428445
   47       6081.800000000000        -0.021337121098
   48       2193.200000000000        -0.067040735642
   49        852.720000000000        -0.179509963190
   50        351.460000000000        -0.388119436203
   51        150.290000000000        -0.525121440110
   52         61.400000000000         0.200249977464
   53         29.044000000000         2.414579066980
   54         13.399000000000         2.536872591377
   55          4.835800000000        -5.266633362148
   56          2.081300000000        -7.558314239593
   57          0.515380000000         0.062043796382
   58          0.191030000000        -0.019993031609
 S 58
    1    1931600.000000000000         0.000049840109
    2     289380.000000000000         0.000387234192
    3      65857.000000000000         0.002030475701
    4      18650.000000000000         0.008482819558
    5       6081.800000000000         0.029898962016
    6       2193.200000000000         0.089130561447
    7        852.720000000000         0.213261259071
    8        351.460000000000         0.354395870565
    9        150.290000000000         0.304489844072
   10         61.400000000000         0.068389188726
   11         29.044000000000        -0.006802628736
   12         13.399000000000         0.002796041660
   13          4.835800000000        -0.001026401320
   14          2.081300000000         0.000441548903
   15    1931600.000000000000        -0.000103579763
   16     289380.000000000000        -0.000805027471
   17      65857.000000000000        -0.004228934374
   18      18650.000000000000        -0.017767182151
   19       6081.800000000000        -0.063660253696
   20       2193.200000000000        -0.197978425646
   21        852.720000000000        -0.524645751878
   22        351.460000000000        -1.087624056706
   23        150.290000000000        -1.381916311044
   24         61.400000000000         0.445780398375
   25         29.044000000000         3.654896352933
   26         13.399000000000         2.812735135290
   27          4.835800000000         0.251193716544
   28          2.081300000000        -0.039347883156
   29    1931600.000000000000         0.000141338236
   30     289380.000000000000         0.001102026483
   31      65857.000000000000         0.005764030131
   32      18650.000000000000         0.024380804268
   33       6081.800000000000         0.086871655883
   34       2193.200000000000         0.274286807767
   35        852.720000000000         0.727527350019
   36        351.460000000000         1.582058753781
   37        150.290000000000         2.079753474600
   38         61.400000000000        -0.701088870339
   39         29.044000000000        -9.226698237301
   40         13.399000000000        -8.418641154813
   41          4.835800000000        13.067729136914
   42          2.081300000000        13.798788976911
   43    1931600.000000000000        -0.000072113693
   44     289380.000000000000        -0.000561223489
   45      65857.000000000000        -0.002943559292
   46      18650.000000000000        -0.012407533437
   47       6081.800000000000        -0.044423898351
   48       2193.200000000000        -0.139578850014
   49        852.720000000000        -0.373739846201
   50        351.460000000000        -0.808064888524
   51        150.290000000000        -1.093303139145
   52         61.400000000000         0.416920567800
   53         29.044000000000         5.027155000736
   54         13.399000000000         5.281770188590
   55          4.835800000000       -10.965133677183
   56          2.081300000000       -15.736414576898
   57          0.515380000000        -0.373344136722
   58          0.191030000000         0.131166988002
 S 58
    1    1931600.000000000000         0.000056852997
    2     289380.000000000000         0.000441721033
    3      65857.000000000000         0.002316179314
    4      18650.000000000000         0.009676417785
    5       6081.800000000000         0.034105976890
    6       2193.200000000000         0.101671919822
    7        852.720000000000         0.243268765298
    8        351.460000000000         0.404262106650
    9        150.290000000000         0.347333916791
   10         61.400000000000         0.078012075769
   11         29.044000000000        -0.007759811137
   12         13.399000000000         0.003189466317
   13          4.835800000000        -0.001170823913
   14          2.081300000000         0.000503678244
   15    1931600.000000000000        -0.000117931148
   16     289380.000000000000        -0.000916567205
   17      65857.000000000000        -0.004814869925
   18      18650.000000000000        -0.020228895373
   19       6081.800000000000        -0.072480633143
   20       2193.200000000000        -0.225409118034
   21        852.720000000000        -0.597337491827
   22        351.460000000000        -1.238318663132
   23        150.290000000000        -1.573386271021
   24         61.400000000000         0.507545032277
   25         29.044000000000         4.161296670248
   26         13.399000000000         3.202450691489
   27          4.835800000000         0.285997597553
   28          2.081300000000        -0.044799687693
   29    1931600.000000000000         0.000164257078
   30     289380.000000000000         0.001280726686
   31      65857.000000000000         0.006698702185
   32      18650.000000000000         0.028334297893
   33       6081.800000000000         0.100958415861
   34       2193.200000000000         0.318764058569
   35        852.720000000000         0.845500272869
   36        351.460000000000         1.838599068450
   37        150.290000000000         2.416997972968
   38         61.400000000000        -0.814774635155
   39         29.044000000000       -10.722862689787
   40         13.399000000000        -9.783774305386
   41          4.835800000000        15.186739784767
   42          2.081300000000        16.036345362048
   43    1931600.000000000000        -0.000087102242
   44     289380.000000000000        -0.000677871591
   45      65857.000000000000        -0.003555366547
   46      18650.000000000000        -0.014986390601
   47       6081.800000000000        -0.053657231397
   48       2193.200000000000        -0.168589766576
   49        852.720000000000        -0.451420207465
   50        351.460000000000        -0.976018006455
   51        150.290000000000        -1.320541908792
   52         61.400000000000         0.503575872698
   53         29.044000000000         6.072029451648
   54         13.399000000000         6.379565407723
   55          4.835800000000       -13.244193707846
   56          2.081300000000       -19.007166630088
   57          0.515380000000         1.749523639368
   58          0.191030000000        -0.033209770000
 S 58
    1    1931600.000000000000         0.000037325333
    2     289380.000000000000         0.000290000276
    3      65857.000000000000         0.001520626344
    4      18650.000000000000         0.006352796483
    5       6081.800000000000         0.022391378180
    6       2193.200000000000         0.066750013184
    7        852.720000000000         0.159711681644
    8        351.460000000000         0.265407607093
    9        150.290000000000         0.228032907862
   10         61.400000000000         0.051216767571
   11         29.044000000000        -0.005094499018
   12         13.399000000000         0.002093959857
   13          4.835800000000        -0.000768673512
   14          2.081300000000         0.000330676646
   15    1931600.000000000000        -0.000077502595
   16     289380.000000000000        -0.000602354329
   17      65857.000000000000        -0.003164260872
   18      18650.000000000000        -0.013294129043
   19       6081.800000000000        -0.047633193625
   20       2193.200000000000        -0.148135518393
   21        852.720000000000        -0.392561311535
   22        351.460000000000        -0.813804599825
   23        150.290000000000        -1.034006046084
   24         61.400000000000         0.333551043186
   25         29.044000000000         2.734742253595
   26         13.399000000000         2.104602943522
   27          4.835800000000         0.187953365605
   28          2.081300000000        -0.029441688154
   29    1931600.000000000000         0.000109038128
   30     289380.000000000000         0.000850179743
   31      65857.000000000000         0.004446773042
   32      18650.000000000000         0.018809045180
   33       6081.800000000000         0.067018826879
   34       2193.200000000000         0.211603887345
   35        852.720000000000         0.561265110295
   36        351.460000000000         1.220509965585
   37        150.290000000000         1.604466228351
   38         61.400000000000        -0.540868631436
   39         29.044000000000        -7.118115633290
   40         13.399000000000        -6.494724296160
   41          4.835800000000        10.081353553433
   42          2.081300000000        10.645343871758
   43    1931600.000000000000        -0.000058528349
   44     289380.000000000000        -0.000455495798
   45      65857.000000000000        -0.002389028458
   46      18650.000000000000        -0.010070104771
   47       6081.800000000000        -0.036054975227
   48       2193.200000000000        -0.113283889220
   49        852.720000000000        -0.303331796544
   50        351.460000000000        -0.655835273790
   51        150.290000000000        -0.887338100912
   52         61.400000000000         0.338377794426
   53         29.044000000000         4.080100030477
   54         13.399000000000         4.286748808081
   55          4.835800000000        -8.899435613963
   56          2.081300000000       -12.771865117628
   57          0.515380000000         2.775581401230
   58          0.191030000000        -2.221866718652
 P 35
    1       9221.400000000000         0.000436676104
    2       2184.700000000000         0.003796647732
    3        706.270000000000         0.020722797282
    4        269.180000000000         0.079231489497
    5        113.100000000000         0.217481642059
    6         50.433000000000         0.387515844159
    7         23.182000000000         0.360296731265
    8         10.601000000000         0.113480139804
    9          4.811300000000         0.001611445886
   10          2.122100000000         0.001230207799
   11          0.774180000000        -0.000527347061
   12       9221.400000000000         0.000006870356
   13       2184.700000000000         0.000059852768
   14        706.270000000000         0.000331186157
   15        269.180000000000         0.001295783745
   16        113.100000000000         0.003752432230
   17         50.433000000000         0.007138015452
   18         23.182000000000         0.005982344739
   19         10.601000000000        -0.007603383398
   20          4.811300000000        -0.020943651935
   21          2.122100000000        -0.014625371019
   22          0.774180000000        -0.001776273008
   23       9221.400000000000         0.000009031380
   24       2184.700000000000         0.000079059399
   25        706.270000000000         0.000436199433
   26        269.180000000000         0.001720274515
   27        113.100000000000         0.004987603992
   28         50.433000000000         0.009657354972
   29         23.182000000000         0.007785634992
   30         10.601000000000        -0.012680060489
   31          4.811300000000        -0.038330908104
   32          2.122100000000        -0.022078194347
   33          0.774180000000         0.060821472031
   34          0.306500000000        -0.037276006785
   35          0.107760000000         0.012021379037
 P 35
    1       9221.400000000000        -0.000026608678
    2       2184.700000000000        -0.000231347161
    3        706.270000000000        -0.001262735089
    4        269.180000000000        -0.004827938073
    5        113.100000000000        -0.013252153991
    6         50.433000000000        -0.023613117835
    7         23.182000000000        -0.021954532438
    8         10.601000000000        -0.006914865427
    9          4.811300000000        -0.000098192789
   10          2.122100000000        -0.000074962204
   11          0.774180000000         0.000032133675
   12       9221.400000000000         0.000121688885
   13       2184.700000000000         0.001060122228
   14        706.270000000000         0.005866024498
   15        269.180000000000         0.022951138018
   16        113.100000000000         0.066463706101
   17         50.433000000000         0.126429721341
   18         23.182000000000         0.105960288727
   19         10.601000000000        -0.134672396091
   20          4.811300000000        -0.370957459483
   21          2.122100000000        -0.259047013106
   22          0.774180000000        -0.031461644054
   23       9221.400000000000         0.000067117866
   24       2184.700000000000         0.000587540101
   25        706.270000000000         0.003241672254
   26        269.180000000000         0.012784441569
   27        113.100000000000         0.037066021298
   28         50.433000000000         0.071769877003
   29         23.182000000000         0.057859948957
   30         10.601000000000        -0.094233502270
   31          4.811300000000        -0.284861079244
   32          2.122100000000        -0.164076944187
   33          0.774180000000         0.452002601067
   34          0.306500000000        -0.241769866332
   35          0.107760000000         0.074532988433
 P 35
    1       9221.400000000000         0.000026867450
    2       2184.700000000000         0.000233597034
    3        706.270000000000         0.001275015307
    4        269.180000000000         0.004874890225
    5        113.100000000000         0.013381032437
    6         50.433000000000         0.023842757630
    7         23.182000000000         0.022168042334
    8         10.601000000000         0.006982113144
    9          4.811300000000         0.000099147723
   10          2.122100000000         0.000075691218
   11          0.774180000000        -0.000032446178
   12       9221.400000000000        -0.000210222615
   13       2184.700000000000        -0.001831405282
   14        706.270000000000        -0.010133801525
   15        269.180000000000        -0.039649046390
   16        113.100000000000        -0.114818819195
   17         50.433000000000        -0.218412606928
   18         23.182000000000        -0.183050809937
   19         10.601000000000         0.232652170703
   20          4.811300000000         0.640844454339
   21          2.122100000000         0.447514499354
   22          0.774180000000         0.054351299861
   23       9221.400000000000         0.000229220353
   24       2184.700000000000         0.002006561842
   25        706.270000000000         0.011070930883
   26        269.180000000000         0.043661313630
   27        113.100000000000         0.126587553492
   28         50.433000000000         0.245107859598
   29         23.182000000000         0.197602794344
   30         10.601000000000        -0.321825437197
   31          4.811300000000        -0.972855079770
   32          2.122100000000        -0.560354152449
   33          0.774180000000         1.543675351099
   34          0.306500000000        -0.698497294447
   35          0.107760000000         0.194484769538
 P 35
    1       9221.400000000000        -0.000034713043
    2       2184.700000000000        -0.000301809960
    3        706.270000000000        -0.001647333925
    4        269.180000000000        -0.006298412266
    5        113.100000000000        -0.017288442394
    6         50.433000000000        -0.030805107434
    7         23.182000000000        -0.028641356688
    8         10.601000000000        -0.009020967661
    9          4.811300000000        -0.000128099959
   10          2.122100000000        -0.000097793894
   11          0.774180000000         0.000041920822
   12       9221.400000000000         0.000187096806
   13       2184.700000000000         0.001629939194
   14        706.270000000000         0.009019019689
   15        269.180000000000         0.035287402180
   16        113.100000000000         0.102188027700
   17         50.433000000000         0.194385847923
   18         23.182000000000         0.162914070772
   19         10.601000000000        -0.207058970218
   20          4.811300000000        -0.570347538063
   21          2.122100000000        -0.398285092780
   22          0.774180000000        -0.048372315398
   23       9221.400000000000        -0.000169360691
   24       2184.700000000000        -0.001482559015
   25        706.270000000000        -0.008179816861
   26        269.180000000000        -0.032259396539
   27        113.100000000000        -0.093529895127
   28         50.433000000000        -0.181099261110
   29         23.182000000000        -0.145999887998
   30         10.601000000000         0.237782456174
   31          4.811300000000         0.718799211098
   32          2.122100000000         0.414020681077
   33          0.774180000000        -1.140552840433
   34          0.306500000000         1.967730467659
   35          0.107760000000        -0.395964847613
 P 35
    1       9221.400000000000        -0.000017170966
    2       2184.700000000000        -0.000149291680
    3        706.270000000000        -0.000814861276
    4        269.180000000000        -0.003115538494
    5        113.100000000000        -0.008551807265
    6         50.433000000000        -0.015237887575
    7         23.182000000000        -0.014167578352
    8         10.601000000000        -0.004462262998
    9          4.811300000000        -0.000063365232
   10          2.122100000000        -0.000048374198
   11          0.774180000000         0.000020736327
   12       9221.400000000000         0.000087448402
   13       2184.700000000000         0.000761827959
   14        706.270000000000         0.004215458704
   15        269.180000000000         0.016493210103
   16        113.100000000000         0.047762331787
   17         50.433000000000         0.090855275047
   18         23.182000000000         0.076145474927
   19         10.601000000000        -0.096778648710
   20          4.811300000000        -0.266578472647
   21          2.122100000000        -0.186157079019
   22          0.774180000000        -0.022609053422
   23       9221.400000000000        -0.000076850896
   24       2184.700000000000        -0.000672741641
   25        706.270000000000        -0.003711760113
   26        269.180000000000        -0.014638364573
   27        113.100000000000        -0.042441113297
   28         50.433000000000        -0.082177513919
   29         23.182000000000        -0.066250451574
   30         10.601000000000         0.107898679333
   31          4.811300000000         0.326169923683
   32          2.122100000000         0.187870398110
   33          0.774180000000        -0.517549306089
   34          0.306500000000         1.427983339184
   35          0.107760000000        -1.599310585156
 D 9
    1        456.330000000000         0.001521891479
    2        136.350000000000         0.013243203209
    3         51.762000000000         0.063864664878
    4         22.080000000000         0.185504902416
    5         10.022000000000         0.350489538623
    6          4.547600000000         0.423972442328
    7          2.012800000000         0.307897267067
    8          0.830980000000        -0.297423965834
    9          0.308000000000         0.111374492323
 D 9
    1        456.330000000000         0.000305781754
    2        136.350000000000         0.002660853266
    3         51.762000000000         0.012831827726
    4         22.080000000000         0.037272049491
    5         10.022000000000         0.070421122351
    6          4.547600000000         0.085185467595
    7          2.012800000000         0.061863390277
    8          0.830980000000        -1.249467310021
    9          0.308000000000         0.315602027999
 D 9
    1        456.330000000000         0.000104313188
    2        136.350000000000         0.000907713045
    3         51.762000000000         0.004377399374
    4         22.080000000000         0.012714840755
    5         10.022000000000         0.024023185435
    6          4.547600000000         0.029059836255
    7          2.012800000000         0.021103834285
    8          0.830980000000        -0.681387575821
    9          0.308000000000         1.315340853951
 F 1
    1          0.590000000000         1.000000000000
 end
  // -----------------------------------------------
  // The basis set
  // -----------------------------------------------
  BAS[ATNO] = new BFNGauss[NSH];
  // Basis function   1 L = s
  InitBFNGauss(BAS[ATNO][  0]);
  BAS[ATNO][  0].l  = 0;
  BAS[ATNO][  0].ng = 58;
  BAS[ATNO][  0].a[  0] =   1931600.000000000000;     BAS[ATNO][  0].d[  0] =         0.000054096756;
  BAS[ATNO][  0].a[  1] =    289380.000000000000;     BAS[ATNO][  0].d[  1] =         0.000420306338;
  BAS[ATNO][  0].a[  2] =     65857.000000000000;     BAS[ATNO][  0].d[  2] =         0.002203890628;
  BAS[ATNO][  0].a[  3] =     18650.000000000000;     BAS[ATNO][  0].d[  3] =         0.009207303746;
  BAS[ATNO][  0].a[  4] =      6081.800000000000;     BAS[ATNO][  0].d[  4] =         0.032452514531;
  BAS[ATNO][  0].a[  5] =      2193.200000000000;     BAS[ATNO][  0].d[  5] =         0.096742851439;
  BAS[ATNO][  0].a[  6] =       852.720000000000;     BAS[ATNO][  0].d[  6] =         0.231475062751;
  BAS[ATNO][  0].a[  7] =       351.460000000000;     BAS[ATNO][  0].d[  7] =         0.384663425205;
  BAS[ATNO][  0].a[  8] =       150.290000000000;     BAS[ATNO][  0].d[  8] =         0.330495121667;
  BAS[ATNO][  0].a[  9] =        61.400000000000;     BAS[ATNO][  0].d[  9] =         0.074230039815;
  BAS[ATNO][  0].a[ 10] =        29.044000000000;     BAS[ATNO][  0].d[ 10] =        -0.007383614447;
  BAS[ATNO][  0].a[ 11] =        13.399000000000;     BAS[ATNO][  0].d[ 11] =         0.003034840559;
  BAS[ATNO][  0].a[ 12] =         4.835800000000;     BAS[ATNO][  0].d[ 12] =        -0.001114062212;
  BAS[ATNO][  0].a[ 13] =         2.081300000000;     BAS[ATNO][  0].d[ 13] =         0.000479259855;
  BAS[ATNO][  0].a[ 14] =   1931600.000000000000;     BAS[ATNO][  0].d[ 14] =        -0.000000649989;
  BAS[ATNO][  0].a[ 15] =    289380.000000000000;     BAS[ATNO][  0].d[ 15] =        -0.000005051753;
  BAS[ATNO][  0].a[ 16] =     65857.000000000000;     BAS[ATNO][  0].d[ 16] =        -0.000026537643;
  BAS[ATNO][  0].a[ 17] =     18650.000000000000;     BAS[ATNO][  0].d[ 17] =        -0.000111493606;
  BAS[ATNO][  0].a[ 18] =      6081.800000000000;     BAS[ATNO][  0].d[ 18] =        -0.000399484353;
  BAS[ATNO][  0].a[ 19] =      2193.200000000000;     BAS[ATNO][  0].d[ 19] =        -0.001242365192;
  BAS[ATNO][  0].a[ 20] =       852.720000000000;     BAS[ATNO][  0].d[ 20] =        -0.003292286108;
  BAS[ATNO][  0].a[ 21] =       351.460000000000;     BAS[ATNO][  0].d[ 21] =        -0.006825118778;
  BAS[ATNO][  0].a[ 22] =       150.290000000000;     BAS[ATNO][  0].d[ 22] =        -0.008671877848;
  BAS[ATNO][  0].a[ 23] =        61.400000000000;     BAS[ATNO][  0].d[ 23] =         0.002797385870;
  BAS[ATNO][  0].a[ 24] =        29.044000000000;     BAS[ATNO][  0].d[ 24] =         0.022935408220;
  BAS[ATNO][  0].a[ 25] =        13.399000000000;     BAS[ATNO][  0].d[ 25] =         0.017650631458;
  BAS[ATNO][  0].a[ 26] =         4.835800000000;     BAS[ATNO][  0].d[ 26] =         0.001576304736;
  BAS[ATNO][  0].a[ 27] =         2.081300000000;     BAS[ATNO][  0].d[ 27] =        -0.000246918018;
  BAS[ATNO][  0].a[ 28] =   1931600.000000000000;     BAS[ATNO][  0].d[ 28] =         0.000001144161;
  BAS[ATNO][  0].a[ 29] =    289380.000000000000;     BAS[ATNO][  0].d[ 29] =         0.000008921122;
  BAS[ATNO][  0].a[ 30] =     65857.000000000000;     BAS[ATNO][  0].d[ 30] =         0.000046660965;
  BAS[ATNO][  0].a[ 31] =     18650.000000000000;     BAS[ATNO][  0].d[ 31] =         0.000197367436;
  BAS[ATNO][  0].a[ 32] =      6081.800000000000;     BAS[ATNO][  0].d[ 32] =         0.000703243246;
  BAS[ATNO][  0].a[ 33] =      2193.200000000000;     BAS[ATNO][  0].d[ 33] =         0.002220405990;
  BAS[ATNO][  0].a[ 34] =       852.720000000000;     BAS[ATNO][  0].d[ 34] =         0.005889477876;
  BAS[ATNO][  0].a[ 35] =       351.460000000000;     BAS[ATNO][  0].d[ 35] =         0.012807078702;
  BAS[ATNO][  0].a[ 36] =       150.290000000000;     BAS[ATNO][  0].d[ 36] =         0.016836015961;
  BAS[ATNO][  0].a[ 37] =        61.400000000000;     BAS[ATNO][  0].d[ 37] =        -0.005675453151;
  BAS[ATNO][  0].a[ 38] =        29.044000000000;     BAS[ATNO][  0].d[ 38] =        -0.074691948198;
  BAS[ATNO][  0].a[ 39] =        13.399000000000;     BAS[ATNO][  0].d[ 39] =        -0.068150566201;
  BAS[ATNO][  0].a[ 40] =         4.835800000000;     BAS[ATNO][  0].d[ 40] =         0.105785853472;
  BAS[ATNO][  0].a[ 41] =         2.081300000000;     BAS[ATNO][  0].d[ 41] =         0.111703927554;
  BAS[ATNO][  0].a[ 42] =   1931600.000000000000;     BAS[ATNO][  0].d[ 42] =        -0.000000578982;
  BAS[ATNO][  0].a[ 43] =    289380.000000000000;     BAS[ATNO][  0].d[ 43] =        -0.000004505920;
  BAS[ATNO][  0].a[ 44] =     65857.000000000000;     BAS[ATNO][  0].d[ 44] =        -0.000023633086;
  BAS[ATNO][  0].a[ 45] =     18650.000000000000;     BAS[ATNO][  0].d[ 45] =        -0.000099616918;
  BAS[ATNO][  0].a[ 46] =      6081.800000000000;     BAS[ATNO][  0].d[ 46] =        -0.000356668137;
  BAS[ATNO][  0].a[ 47] =      2193.200000000000;     BAS[ATNO][  0].d[ 47] =        -0.001120642948;
  BAS[ATNO][  0].a[ 48] =       852.720000000000;     BAS[ATNO][  0].d[ 48] =        -0.003000661797;
  BAS[ATNO][  0].a[ 49] =       351.460000000000;     BAS[ATNO][  0].d[ 49] =        -0.006487746664;
  BAS[ATNO][  0].a[ 50] =       150.290000000000;     BAS[ATNO][  0].d[ 50] =        -0.008777851747;
  BAS[ATNO][  0].a[ 51] =        61.400000000000;     BAS[ATNO][  0].d[ 51] =         0.003347348785;
  BAS[ATNO][  0].a[ 52] =        29.044000000000;     BAS[ATNO][  0].d[ 52] =         0.040361743900;
  BAS[ATNO][  0].a[ 53] =        13.399000000000;     BAS[ATNO][  0].d[ 53] =         0.042405984232;
  BAS[ATNO][  0].a[ 54] =         4.835800000000;     BAS[ATNO][  0].d[ 54] =        -0.088036258529;
  BAS[ATNO][  0].a[ 55] =         2.081300000000;     BAS[ATNO][  0].d[ 55] =        -0.126343654606;
  BAS[ATNO][  0].a[ 56] =         0.515380000000;     BAS[ATNO][  0].d[ 56] =         0.006188572744;
  BAS[ATNO][  0].a[ 57] =         0.191030000000;     BAS[ATNO][  0].d[ 57] =        -0.002510480995;

  // Basis function   2 L = s
  InitBFNGauss(BAS[ATNO][  1]);
  BAS[ATNO][  1].l  = 0;
  BAS[ATNO][  1].ng = 58;
  BAS[ATNO][  1].a[  0] =   1931600.000000000000;     BAS[ATNO][  1].d[  0] =        -0.000004085877;
  BAS[ATNO][  1].a[  1] =    289380.000000000000;     BAS[ATNO][  1].d[  1] =        -0.000031745338;
  BAS[ATNO][  1].a[  2] =     65857.000000000000;     BAS[ATNO][  1].d[  2] =        -0.000166457763;
  BAS[ATNO][  1].a[  3] =     18650.000000000000;     BAS[ATNO][  1].d[  3] =        -0.000695418895;
  BAS[ATNO][  1].a[  4] =      6081.800000000000;     BAS[ATNO][  1].d[  4] =        -0.002451107556;
  BAS[ATNO][  1].a[  5] =      2193.200000000000;     BAS[ATNO][  1].d[  5] =        -0.007306895554;
  BAS[ATNO][  1].a[  6] =       852.720000000000;     BAS[ATNO][  1].d[  6] =        -0.017483091326;
  BAS[ATNO][  1].a[  7] =       351.460000000000;     BAS[ATNO][  1].d[  7] =        -0.029053262640;
  BAS[ATNO][  1].a[  8] =       150.290000000000;     BAS[ATNO][  1].d[  8] =        -0.024961982195;
  BAS[ATNO][  1].a[  9] =        61.400000000000;     BAS[ATNO][  1].d[  9] =        -0.005606524305;
  BAS[ATNO][  1].a[ 10] =        29.044000000000;     BAS[ATNO][  1].d[ 10] =         0.000557677376;
  BAS[ATNO][  1].a[ 11] =        13.399000000000;     BAS[ATNO][  1].d[ 11] =        -0.000229218621;
  BAS[ATNO][  1].a[ 12] =         4.835800000000;     BAS[ATNO][  1].d[ 12] =         0.000084144059;
  BAS[ATNO][  1].a[ 13] =         2.081300000000;     BAS[ATNO][  1].d[ 13] =        -0.000036198041;
  BAS[ATNO][  1].a[ 14] =   1931600.000000000000;     BAS[ATNO][  1].d[ 14] =        -0.000007247061;
  BAS[ATNO][  1].a[ 15] =    289380.000000000000;     BAS[ATNO][  1].d[ 15] =        -0.000056324546;
  BAS[ATNO][  1].a[ 16] =     65857.000000000000;     BAS[ATNO][  1].d[ 16] =        -0.000295881591;
  BAS[ATNO][  1].a[ 17] =     18650.000000000000;     BAS[ATNO][  1].d[ 17] =        -0.001243098534;
  BAS[ATNO][  1].a[ 18] =      6081.800000000000;     BAS[ATNO][  1].d[ 18] =        -0.004454052836;
  BAS[ATNO][  1].a[ 19] =      2193.200000000000;     BAS[ATNO][  1].d[ 19] =        -0.013851757054;
  BAS[ATNO][  1].a[ 20] =       852.720000000000;     BAS[ATNO][  1].d[ 20] =        -0.036707360767;
  BAS[ATNO][  1].a[ 21] =       351.460000000000;     BAS[ATNO][  1].d[ 21] =        -0.076096696648;
  BAS[ATNO][  1].a[ 22] =       150.290000000000;     BAS[ATNO][  1].d[ 22] =        -0.096687146322;
  BAS[ATNO][  1].a[ 23] =        61.400000000000;     BAS[ATNO][  1].d[ 23] =         0.031189468031;
  BAS[ATNO][  1].a[ 24] =        29.044000000000;     BAS[ATNO][  1].d[ 24] =         0.255718450997;
  BAS[ATNO][  1].a[ 25] =        13.399000000000;     BAS[ATNO][  1].d[ 25] =         0.196795805518;
  BAS[ATNO][  1].a[ 26] =         4.835800000000;     BAS[ATNO][  1].d[ 26] =         0.017575017700;
  BAS[ATNO][  1].a[ 27] =         2.081300000000;     BAS[ATNO][  1].d[ 27] =        -0.002753013700;
  BAS[ATNO][  1].a[ 28] =   1931600.000000000000;     BAS[ATNO][  1].d[ 28] =        -0.000013819299;
  BAS[ATNO][  1].a[ 29] =    289380.000000000000;     BAS[ATNO][  1].d[ 29] =        -0.000107750269;
  BAS[ATNO][  1].a[ 30] =     65857.000000000000;     BAS[ATNO][  1].d[ 30] =        -0.000563576111;
  BAS[ATNO][  1].a[ 31] =     18650.000000000000;     BAS[ATNO][  1].d[ 31] =        -0.002383824951;
  BAS[ATNO][  1].a[ 32] =      6081.800000000000;     BAS[ATNO][  1].d[ 32] =        -0.008493846985;
  BAS[ATNO][  1].a[ 33] =      2193.200000000000;     BAS[ATNO][  1].d[ 33] =        -0.026818300531;
  BAS[ATNO][  1].a[ 34] =       852.720000000000;     BAS[ATNO][  1].d[ 34] =        -0.071133742362;
  BAS[ATNO][  1].a[ 35] =       351.460000000000;     BAS[ATNO][  1].d[ 35] =        -0.154685263434;
  BAS[ATNO][  1].a[ 36] =       150.290000000000;     BAS[ATNO][  1].d[ 36] =        -0.203347197649;
  BAS[ATNO][  1].a[ 37] =        61.400000000000;     BAS[ATNO][  1].d[ 37] =         0.068548728889;
  BAS[ATNO][  1].a[ 38] =        29.044000000000;     BAS[ATNO][  1].d[ 38] =         0.902137322052;
  BAS[ATNO][  1].a[ 39] =        13.399000000000;     BAS[ATNO][  1].d[ 39] =         0.823129812138;
  BAS[ATNO][  1].a[ 40] =         4.835800000000;     BAS[ATNO][  1].d[ 40] =        -1.277692828538;
  BAS[ATNO][  1].a[ 41] =         2.081300000000;     BAS[ATNO][  1].d[ 41] =        -1.349171958921;
  BAS[ATNO][  1].a[ 42] =   1931600.000000000000;     BAS[ATNO][  1].d[ 42] =         0.000006787652;
  BAS[ATNO][  1].a[ 43] =    289380.000000000000;     BAS[ATNO][  1].d[ 43] =         0.000052824774;
  BAS[ATNO][  1].a[ 44] =     65857.000000000000;     BAS[ATNO][  1].d[ 44] =         0.000277060488;
  BAS[ATNO][  1].a[ 45] =     18650.000000000000;     BAS[ATNO][  1].d[ 45] =         0.001167850525;
  BAS[ATNO][  1].a[ 46] =      6081.800000000000;     BAS[ATNO][  1].d[ 46] =         0.004181368786;
  BAS[ATNO][  1].a[ 47] =      2193.200000000000;     BAS[ATNO][  1].d[ 47] =         0.013137762967;
  BAS[ATNO][  1].a[ 48] =       852.720000000000;     BAS[ATNO][  1].d[ 48] =         0.035178005194;
  BAS[ATNO][  1].a[ 49] =       351.460000000000;     BAS[ATNO][  1].d[ 49] =         0.076058550176;
  BAS[ATNO][  1].a[ 50] =       150.290000000000;     BAS[ATNO][  1].d[ 50] =         0.102906403740;
  BAS[ATNO][  1].a[ 51] =        61.400000000000;     BAS[ATNO][  1].d[ 51] =        -0.039242360825;
  BAS[ATNO][  1].a[ 52] =        29.044000000000;     BAS[ATNO][  1].d[ 52] =        -0.473177496385;
  BAS[ATNO][  1].a[ 53] =        13.399000000000;     BAS[ATNO][  1].d[ 53] =        -0.497142975291;
  BAS[ATNO][  1].a[ 54] =         4.835800000000;     BAS[ATNO][  1].d[ 54] =         1.032085642900;
  BAS[ATNO][  1].a[ 55] =         2.081300000000;     BAS[ATNO][  1].d[ 55] =         1.481179166045;
  BAS[ATNO][  1].a[ 56] =         0.515380000000;     BAS[ATNO][  1].d[ 56] =        -0.042940712282;
  BAS[ATNO][  1].a[ 57] =         0.191030000000;     BAS[ATNO][  1].d[ 57] =         0.016276767470;

  // Basis function   3 L = s
  InitBFNGauss(BAS[ATNO][  2]);
  BAS[ATNO][  2].l  = 0;
  BAS[ATNO][  2].ng = 58;
  BAS[ATNO][  2].a[  0] =   1931600.000000000000;     BAS[ATNO][  2].d[  0] =        -0.000023548129;
  BAS[ATNO][  2].a[  1] =    289380.000000000000;     BAS[ATNO][  2].d[  1] =        -0.000182957880;
  BAS[ATNO][  2].a[  2] =     65857.000000000000;     BAS[ATNO][  2].d[  2] =        -0.000959345889;
  BAS[ATNO][  2].a[  3] =     18650.000000000000;     BAS[ATNO][  2].d[  3] =        -0.004007907146;
  BAS[ATNO][  2].a[  4] =      6081.800000000000;     BAS[ATNO][  2].d[  4] =        -0.014126466171;
  BAS[ATNO][  2].a[  5] =      2193.200000000000;     BAS[ATNO][  2].d[  5] =        -0.042111825166;
  BAS[ATNO][  2].a[  6] =       852.720000000000;     BAS[ATNO][  2].d[  6] =        -0.100760285932;
  BAS[ATNO][  2].a[  7] =       351.460000000000;     BAS[ATNO][  2].d[  7] =        -0.167442644796;
  BAS[ATNO][  2].a[  8] =       150.290000000000;     BAS[ATNO][  2].d[  8] =        -0.143863371556;
  BAS[ATNO][  2].a[  9] =        61.400000000000;     BAS[ATNO][  2].d[  9] =        -0.032312076937;
  BAS[ATNO][  2].a[ 10] =        29.044000000000;     BAS[ATNO][  2].d[ 10] =         0.003214061567;
  BAS[ATNO][  2].a[ 11] =        13.399000000000;     BAS[ATNO][  2].d[ 11] =        -0.001321055490;
  BAS[ATNO][  2].a[ 12] =         4.835800000000;     BAS[ATNO][  2].d[ 12] =         0.000484947388;
  BAS[ATNO][  2].a[ 13] =         2.081300000000;     BAS[ATNO][  2].d[ 13] =        -0.000208620140;
  BAS[ATNO][  2].a[ 14] =   1931600.000000000000;     BAS[ATNO][  2].d[ 14] =         0.000050642139;
  BAS[ATNO][  2].a[ 15] =    289380.000000000000;     BAS[ATNO][  2].d[ 15] =         0.000393593419;
  BAS[ATNO][  2].a[ 16] =     65857.000000000000;     BAS[ATNO][  2].d[ 16] =         0.002067607380;
  BAS[ATNO][  2].a[ 17] =     18650.000000000000;     BAS[ATNO][  2].d[ 17] =         0.008686717193;
  BAS[ATNO][  2].a[ 18] =      6081.800000000000;     BAS[ATNO][  2].d[ 18] =         0.031124722852;
  BAS[ATNO][  2].a[ 19] =      2193.200000000000;     BAS[ATNO][  2].d[ 19] =         0.096795461394;
  BAS[ATNO][  2].a[ 20] =       852.720000000000;     BAS[ATNO][  2].d[ 20] =         0.256509402253;
  BAS[ATNO][  2].a[ 21] =       351.460000000000;     BAS[ATNO][  2].d[ 21] =         0.531760327159;
  BAS[ATNO][  2].a[ 22] =       150.290000000000;     BAS[ATNO][  2].d[ 22] =         0.675645472474;
  BAS[ATNO][  2].a[ 23] =        61.400000000000;     BAS[ATNO][  2].d[ 23] =        -0.217950613559;
  BAS[ATNO][  2].a[ 24] =        29.044000000000;     BAS[ATNO][  2].d[ 24] =        -1.786949146982;
  BAS[ATNO][  2].a[ 25] =        13.399000000000;     BAS[ATNO][  2].d[ 25] =        -1.375200324535;
  BAS[ATNO][  2].a[ 26] =         4.835800000000;     BAS[ATNO][  2].d[ 26] =        -0.122813440974;
  BAS[ATNO][  2].a[ 27] =         2.081300000000;     BAS[ATNO][  2].d[ 27] =         0.019237937127;
  BAS[ATNO][  2].a[ 28] =   1931600.000000000000;     BAS[ATNO][  2].d[ 28] =        -0.000074656582;
  BAS[ATNO][  2].a[ 29] =    289380.000000000000;     BAS[ATNO][  2].d[ 29] =        -0.000582103842;
  BAS[ATNO][  2].a[ 30] =     65857.000000000000;     BAS[ATNO][  2].d[ 30] =        -0.003044631085;
  BAS[ATNO][  2].a[ 31] =     18650.000000000000;     BAS[ATNO][  2].d[ 31] =        -0.012878238466;
  BAS[ATNO][  2].a[ 32] =      6081.800000000000;     BAS[ATNO][  2].d[ 32] =        -0.045886669206;
  BAS[ATNO][  2].a[ 33] =      2193.200000000000;     BAS[ATNO][  2].d[ 33] =        -0.144881640480;
  BAS[ATNO][  2].a[ 34] =       852.720000000000;     BAS[ATNO][  2].d[ 34] =        -0.384288828262;
  BAS[ATNO][  2].a[ 35] =       351.460000000000;     BAS[ATNO][  2].d[ 35] =        -0.835662748234;
  BAS[ATNO][  2].a[ 36] =       150.290000000000;     BAS[ATNO][  2].d[ 36] =        -1.098551175852;
  BAS[ATNO][  2].a[ 37] =        61.400000000000;     BAS[ATNO][  2].d[ 37] =         0.370323700522;
  BAS[ATNO][  2].a[ 38] =        29.044000000000;     BAS[ATNO][  2].d[ 38] =         4.873654652634;
  BAS[ATNO][  2].a[ 39] =        13.399000000000;     BAS[ATNO][  2].d[ 39] =         4.446829036539;
  BAS[ATNO][  2].a[ 40] =         4.835800000000;     BAS[ATNO][  2].d[ 40] =        -6.902534066847;
  BAS[ATNO][  2].a[ 41] =         2.081300000000;     BAS[ATNO][  2].d[ 41] =        -7.288688799441;
  BAS[ATNO][  2].a[ 42] =   1931600.000000000000;     BAS[ATNO][  2].d[ 42] =         0.000034636731;
  BAS[ATNO][  2].a[ 43] =    289380.000000000000;     BAS[ATNO][  2].d[ 43] =         0.000269559719;
  BAS[ATNO][  2].a[ 44] =     65857.000000000000;     BAS[ATNO][  2].d[ 44] =         0.001413812912;
  BAS[ATNO][  2].a[ 45] =     18650.000000000000;     BAS[ATNO][  2].d[ 45] =         0.005959428445;
  BAS[ATNO][  2].a[ 46] =      6081.800000000000;     BAS[ATNO][  2].d[ 46] =         0.021337121098;
  BAS[ATNO][  2].a[ 47] =      2193.200000000000;     BAS[ATNO][  2].d[ 47] =         0.067040735642;
  BAS[ATNO][  2].a[ 48] =       852.720000000000;     BAS[ATNO][  2].d[ 48] =         0.179509963190;
  BAS[ATNO][  2].a[ 49] =       351.460000000000;     BAS[ATNO][  2].d[ 49] =         0.388119436203;
  BAS[ATNO][  2].a[ 50] =       150.290000000000;     BAS[ATNO][  2].d[ 50] =         0.525121440110;
  BAS[ATNO][  2].a[ 51] =        61.400000000000;     BAS[ATNO][  2].d[ 51] =        -0.200249977464;
  BAS[ATNO][  2].a[ 52] =        29.044000000000;     BAS[ATNO][  2].d[ 52] =        -2.414579066980;
  BAS[ATNO][  2].a[ 53] =        13.399000000000;     BAS[ATNO][  2].d[ 53] =        -2.536872591377;
  BAS[ATNO][  2].a[ 54] =         4.835800000000;     BAS[ATNO][  2].d[ 54] =         5.266633362148;
  BAS[ATNO][  2].a[ 55] =         2.081300000000;     BAS[ATNO][  2].d[ 55] =         7.558314239593;
  BAS[ATNO][  2].a[ 56] =         0.515380000000;     BAS[ATNO][  2].d[ 56] =        -0.062043796382;
  BAS[ATNO][  2].a[ 57] =         0.191030000000;     BAS[ATNO][  2].d[ 57] =         0.019993031609;

  // Basis function   4 L = s
  InitBFNGauss(BAS[ATNO][  3]);
  BAS[ATNO][  3].l  = 0;
  BAS[ATNO][  3].ng = 58;
  BAS[ATNO][  3].a[  0] =   1931600.000000000000;     BAS[ATNO][  3].d[  0] =        -0.000049840109;
  BAS[ATNO][  3].a[  1] =    289380.000000000000;     BAS[ATNO][  3].d[  1] =        -0.000387234192;
  BAS[ATNO][  3].a[  2] =     65857.000000000000;     BAS[ATNO][  3].d[  2] =        -0.002030475701;
  BAS[ATNO][  3].a[  3] =     18650.000000000000;     BAS[ATNO][  3].d[  3] =        -0.008482819558;
  BAS[ATNO][  3].a[  4] =      6081.800000000000;     BAS[ATNO][  3].d[  4] =        -0.029898962016;
  BAS[ATNO][  3].a[  5] =      2193.200000000000;     BAS[ATNO][  3].d[  5] =        -0.089130561447;
  BAS[ATNO][  3].a[  6] =       852.720000000000;     BAS[ATNO][  3].d[  6] =        -0.213261259071;
  BAS[ATNO][  3].a[  7] =       351.460000000000;     BAS[ATNO][  3].d[  7] =        -0.354395870565;
  BAS[ATNO][  3].a[  8] =       150.290000000000;     BAS[ATNO][  3].d[  8] =        -0.304489844072;
  BAS[ATNO][  3].a[  9] =        61.400000000000;     BAS[ATNO][  3].d[  9] =        -0.068389188726;
  BAS[ATNO][  3].a[ 10] =        29.044000000000;     BAS[ATNO][  3].d[ 10] =         0.006802628736;
  BAS[ATNO][  3].a[ 11] =        13.399000000000;     BAS[ATNO][  3].d[ 11] =        -0.002796041660;
  BAS[ATNO][  3].a[ 12] =         4.835800000000;     BAS[ATNO][  3].d[ 12] =         0.001026401320;
  BAS[ATNO][  3].a[ 13] =         2.081300000000;     BAS[ATNO][  3].d[ 13] =        -0.000441548903;
  BAS[ATNO][  3].a[ 14] =   1931600.000000000000;     BAS[ATNO][  3].d[ 14] =         0.000103579763;
  BAS[ATNO][  3].a[ 15] =    289380.000000000000;     BAS[ATNO][  3].d[ 15] =         0.000805027471;
  BAS[ATNO][  3].a[ 16] =     65857.000000000000;     BAS[ATNO][  3].d[ 16] =         0.004228934374;
  BAS[ATNO][  3].a[ 17] =     18650.000000000000;     BAS[ATNO][  3].d[ 17] =         0.017767182151;
  BAS[ATNO][  3].a[ 18] =      6081.800000000000;     BAS[ATNO][  3].d[ 18] =         0.063660253696;
  BAS[ATNO][  3].a[ 19] =      2193.200000000000;     BAS[ATNO][  3].d[ 19] =         0.197978425646;
  BAS[ATNO][  3].a[ 20] =       852.720000000000;     BAS[ATNO][  3].d[ 20] =         0.524645751878;
  BAS[ATNO][  3].a[ 21] =       351.460000000000;     BAS[ATNO][  3].d[ 21] =         1.087624056706;
  BAS[ATNO][  3].a[ 22] =       150.290000000000;     BAS[ATNO][  3].d[ 22] =         1.381916311044;
  BAS[ATNO][  3].a[ 23] =        61.400000000000;     BAS[ATNO][  3].d[ 23] =        -0.445780398375;
  BAS[ATNO][  3].a[ 24] =        29.044000000000;     BAS[ATNO][  3].d[ 24] =        -3.654896352933;
  BAS[ATNO][  3].a[ 25] =        13.399000000000;     BAS[ATNO][  3].d[ 25] =        -2.812735135290;
  BAS[ATNO][  3].a[ 26] =         4.835800000000;     BAS[ATNO][  3].d[ 26] =        -0.251193716544;
  BAS[ATNO][  3].a[ 27] =         2.081300000000;     BAS[ATNO][  3].d[ 27] =         0.039347883156;
  BAS[ATNO][  3].a[ 28] =   1931600.000000000000;     BAS[ATNO][  3].d[ 28] =        -0.000141338236;
  BAS[ATNO][  3].a[ 29] =    289380.000000000000;     BAS[ATNO][  3].d[ 29] =        -0.001102026483;
  BAS[ATNO][  3].a[ 30] =     65857.000000000000;     BAS[ATNO][  3].d[ 30] =        -0.005764030131;
  BAS[ATNO][  3].a[ 31] =     18650.000000000000;     BAS[ATNO][  3].d[ 31] =        -0.024380804268;
  BAS[ATNO][  3].a[ 32] =      6081.800000000000;     BAS[ATNO][  3].d[ 32] =        -0.086871655883;
  BAS[ATNO][  3].a[ 33] =      2193.200000000000;     BAS[ATNO][  3].d[ 33] =        -0.274286807767;
  BAS[ATNO][  3].a[ 34] =       852.720000000000;     BAS[ATNO][  3].d[ 34] =        -0.727527350019;
  BAS[ATNO][  3].a[ 35] =       351.460000000000;     BAS[ATNO][  3].d[ 35] =        -1.582058753781;
  BAS[ATNO][  3].a[ 36] =       150.290000000000;     BAS[ATNO][  3].d[ 36] =        -2.079753474600;
  BAS[ATNO][  3].a[ 37] =        61.400000000000;     BAS[ATNO][  3].d[ 37] =         0.701088870339;
  BAS[ATNO][  3].a[ 38] =        29.044000000000;     BAS[ATNO][  3].d[ 38] =         9.226698237301;
  BAS[ATNO][  3].a[ 39] =        13.399000000000;     BAS[ATNO][  3].d[ 39] =         8.418641154813;
  BAS[ATNO][  3].a[ 40] =         4.835800000000;     BAS[ATNO][  3].d[ 40] =       -13.067729136914;
  BAS[ATNO][  3].a[ 41] =         2.081300000000;     BAS[ATNO][  3].d[ 41] =       -13.798788976911;
  BAS[ATNO][  3].a[ 42] =   1931600.000000000000;     BAS[ATNO][  3].d[ 42] =         0.000072113693;
  BAS[ATNO][  3].a[ 43] =    289380.000000000000;     BAS[ATNO][  3].d[ 43] =         0.000561223489;
  BAS[ATNO][  3].a[ 44] =     65857.000000000000;     BAS[ATNO][  3].d[ 44] =         0.002943559292;
  BAS[ATNO][  3].a[ 45] =     18650.000000000000;     BAS[ATNO][  3].d[ 45] =         0.012407533437;
  BAS[ATNO][  3].a[ 46] =      6081.800000000000;     BAS[ATNO][  3].d[ 46] =         0.044423898351;
  BAS[ATNO][  3].a[ 47] =      2193.200000000000;     BAS[ATNO][  3].d[ 47] =         0.139578850014;
  BAS[ATNO][  3].a[ 48] =       852.720000000000;     BAS[ATNO][  3].d[ 48] =         0.373739846201;
  BAS[ATNO][  3].a[ 49] =       351.460000000000;     BAS[ATNO][  3].d[ 49] =         0.808064888524;
  BAS[ATNO][  3].a[ 50] =       150.290000000000;     BAS[ATNO][  3].d[ 50] =         1.093303139145;
  BAS[ATNO][  3].a[ 51] =        61.400000000000;     BAS[ATNO][  3].d[ 51] =        -0.416920567800;
  BAS[ATNO][  3].a[ 52] =        29.044000000000;     BAS[ATNO][  3].d[ 52] =        -5.027155000736;
  BAS[ATNO][  3].a[ 53] =        13.399000000000;     BAS[ATNO][  3].d[ 53] =        -5.281770188590;
  BAS[ATNO][  3].a[ 54] =         4.835800000000;     BAS[ATNO][  3].d[ 54] =        10.965133677183;
  BAS[ATNO][  3].a[ 55] =         2.081300000000;     BAS[ATNO][  3].d[ 55] =        15.736414576898;
  BAS[ATNO][  3].a[ 56] =         0.515380000000;     BAS[ATNO][  3].d[ 56] =         0.373344136722;
[...]
  BAS[ATNO][  7].a[ 16] =        50.433000000000;     BAS[ATNO][  7].d[ 16] =         0.126429721341;
  BAS[ATNO][  7].a[ 17] =        23.182000000000;     BAS[ATNO][  7].d[ 17] =         0.105960288727;
  BAS[ATNO][  7].a[ 18] =        10.601000000000;     BAS[ATNO][  7].d[ 18] =        -0.134672396091;
  BAS[ATNO][  7].a[ 19] =         4.811300000000;     BAS[ATNO][  7].d[ 19] =        -0.370957459483;
  BAS[ATNO][  7].a[ 20] =         2.122100000000;     BAS[ATNO][  7].d[ 20] =        -0.259047013106;
  BAS[ATNO][  7].a[ 21] =         0.774180000000;     BAS[ATNO][  7].d[ 21] =        -0.031461644054;
  BAS[ATNO][  7].a[ 22] =      9221.400000000000;     BAS[ATNO][  7].d[ 22] =         0.000067117866;
  BAS[ATNO][  7].a[ 23] =      2184.700000000000;     BAS[ATNO][  7].d[ 23] =         0.000587540101;
  BAS[ATNO][  7].a[ 24] =       706.270000000000;     BAS[ATNO][  7].d[ 24] =         0.003241672254;
  BAS[ATNO][  7].a[ 25] =       269.180000000000;     BAS[ATNO][  7].d[ 25] =         0.012784441569;
  BAS[ATNO][  7].a[ 26] =       113.100000000000;     BAS[ATNO][  7].d[ 26] =         0.037066021298;
  BAS[ATNO][  7].a[ 27] =        50.433000000000;     BAS[ATNO][  7].d[ 27] =         0.071769877003;
  BAS[ATNO][  7].a[ 28] =        23.182000000000;     BAS[ATNO][  7].d[ 28] =         0.057859948957;
  BAS[ATNO][  7].a[ 29] =        10.601000000000;     BAS[ATNO][  7].d[ 29] =        -0.094233502270;
  BAS[ATNO][  7].a[ 30] =         4.811300000000;     BAS[ATNO][  7].d[ 30] =        -0.284861079244;
  BAS[ATNO][  7].a[ 31] =         2.122100000000;     BAS[ATNO][  7].d[ 31] =        -0.164076944187;
  BAS[ATNO][  7].a[ 32] =         0.774180000000;     BAS[ATNO][  7].d[ 32] =         0.452002601067;
  BAS[ATNO][  7].a[ 33] =         0.306500000000;     BAS[ATNO][  7].d[ 33] =        -0.241769866332;
  BAS[ATNO][  7].a[ 34] =         0.107760000000;     BAS[ATNO][  7].d[ 34] =         0.074532988433;

  // Basis function   9 L = p
  InitBFNGauss(BAS[ATNO][  8]);
  BAS[ATNO][  8].l  = 1;
  BAS[ATNO][  8].ng = 35;
  BAS[ATNO][  8].a[  0] =      9221.400000000000;     BAS[ATNO][  8].d[  0] =         0.000026867450;
  BAS[ATNO][  8].a[  1] =      2184.700000000000;     BAS[ATNO][  8].d[  1] =         0.000233597034;
  BAS[ATNO][  8].a[  2] =       706.270000000000;     BAS[ATNO][  8].d[  2] =         0.001275015307;
  BAS[ATNO][  8].a[  3] =       269.180000000000;     BAS[ATNO][  8].d[  3] =         0.004874890225;
  BAS[ATNO][  8].a[  4] =       113.100000000000;     BAS[ATNO][  8].d[  4] =         0.013381032437;
  BAS[ATNO][  8].a[  5] =        50.433000000000;     BAS[ATNO][  8].d[  5] =         0.023842757630;
  BAS[ATNO][  8].a[  6] =        23.182000000000;     BAS[ATNO][  8].d[  6] =         0.022168042334;
  BAS[ATNO][  8].a[  7] =        10.601000000000;     BAS[ATNO][  8].d[  7] =         0.006982113144;
  BAS[ATNO][  8].a[  8] =         4.811300000000;     BAS[ATNO][  8].d[  8] =         0.000099147723;
  BAS[ATNO][  8].a[  9] =         2.122100000000;     BAS[ATNO][  8].d[  9] =         0.000075691218;
  BAS[ATNO][  8].a[ 10] =         0.774180000000;     BAS[ATNO][  8].d[ 10] =        -0.000032446178;
  BAS[ATNO][  8].a[ 11] =      9221.400000000000;     BAS[ATNO][  8].d[ 11] =        -0.000210222615;
  BAS[ATNO][  8].a[ 12] =      2184.700000000000;     BAS[ATNO][  8].d[ 12] =        -0.001831405282;
  BAS[ATNO][  8].a[ 13] =       706.270000000000;     BAS[ATNO][  8].d[ 13] =        -0.010133801525;
  BAS[ATNO][  8].a[ 14] =       269.180000000000;     BAS[ATNO][  8].d[ 14] =        -0.039649046390;
  BAS[ATNO][  8].a[ 15] =       113.100000000000;     BAS[ATNO][  8].d[ 15] =        -0.114818819195;
  BAS[ATNO][  8].a[ 16] =        50.433000000000;     BAS[ATNO][  8].d[ 16] =        -0.218412606928;
  BAS[ATNO][  8].a[ 17] =        23.182000000000;     BAS[ATNO][  8].d[ 17] =        -0.183050809937;
  BAS[ATNO][  8].a[ 18] =        10.601000000000;     BAS[ATNO][  8].d[ 18] =         0.232652170703;
  BAS[ATNO][  8].a[ 19] =         4.811300000000;     BAS[ATNO][  8].d[ 19] =         0.640844454339;
  BAS[ATNO][  8].a[ 20] =         2.122100000000;     BAS[ATNO][  8].d[ 20] =         0.447514499354;
  BAS[ATNO][  8].a[ 21] =         0.774180000000;     BAS[ATNO][  8].d[ 21] =         0.054351299861;
  BAS[ATNO][  8].a[ 22] =      9221.400000000000;     BAS[ATNO][  8].d[ 22] =         0.000229220353;
  BAS[ATNO][  8].a[ 23] =      2184.700000000000;     BAS[ATNO][  8].d[ 23] =         0.002006561842;
  BAS[ATNO][  8].a[ 24] =       706.270000000000;     BAS[ATNO][  8].d[ 24] =         0.011070930883;
  BAS[ATNO][  8].a[ 25] =       269.180000000000;     BAS[ATNO][  8].d[ 25] =         0.043661313630;
  BAS[ATNO][  8].a[ 26] =       113.100000000000;     BAS[ATNO][  8].d[ 26] =         0.126587553492;
  BAS[ATNO][  8].a[ 27] =        50.433000000000;     BAS[ATNO][  8].d[ 27] =         0.245107859598;
  BAS[ATNO][  8].a[ 28] =        23.182000000000;     BAS[ATNO][  8].d[ 28] =         0.197602794344;
  BAS[ATNO][  8].a[ 29] =        10.601000000000;     BAS[ATNO][  8].d[ 29] =        -0.321825437197;
  BAS[ATNO][  8].a[ 30] =         4.811300000000;     BAS[ATNO][  8].d[ 30] =        -0.972855079770;
  BAS[ATNO][  8].a[ 31] =         2.122100000000;     BAS[ATNO][  8].d[ 31] =        -0.560354152449;
  BAS[ATNO][  8].a[ 32] =         0.774180000000;     BAS[ATNO][  8].d[ 32] =         1.543675351099;
  BAS[ATNO][  8].a[ 33] =         0.306500000000;     BAS[ATNO][  8].d[ 33] =        -0.698497294447;
  BAS[ATNO][  8].a[ 34] =         0.107760000000;     BAS[ATNO][  8].d[ 34] =         0.194484769538;

  // Basis function  10 L = p
  InitBFNGauss(BAS[ATNO][  9]);
  BAS[ATNO][  9].l  = 1;
  BAS[ATNO][  9].ng = 35;
  BAS[ATNO][  9].a[  0] =      9221.400000000000;     BAS[ATNO][  9].d[  0] =        -0.000034713043;
  BAS[ATNO][  9].a[  1] =      2184.700000000000;     BAS[ATNO][  9].d[  1] =        -0.000301809960;
  BAS[ATNO][  9].a[  2] =       706.270000000000;     BAS[ATNO][  9].d[  2] =        -0.001647333925;
  BAS[ATNO][  9].a[  3] =       269.180000000000;     BAS[ATNO][  9].d[  3] =        -0.006298412266;
  BAS[ATNO][  9].a[  4] =       113.100000000000;     BAS[ATNO][  9].d[  4] =        -0.017288442394;
  BAS[ATNO][  9].a[  5] =        50.433000000000;     BAS[ATNO][  9].d[  5] =        -0.030805107434;
  BAS[ATNO][  9].a[  6] =        23.182000000000;     BAS[ATNO][  9].d[  6] =        -0.028641356688;
  BAS[ATNO][  9].a[  7] =        10.601000000000;     BAS[ATNO][  9].d[  7] =        -0.009020967661;
  BAS[ATNO][  9].a[  8] =         4.811300000000;     BAS[ATNO][  9].d[  8] =        -0.000128099959;
  BAS[ATNO][  9].a[  9] =         2.122100000000;     BAS[ATNO][  9].d[  9] =        -0.000097793894;
  BAS[ATNO][  9].a[ 10] =         0.774180000000;     BAS[ATNO][  9].d[ 10] =         0.000041920822;
  BAS[ATNO][  9].a[ 11] =      9221.400000000000;     BAS[ATNO][  9].d[ 11] =         0.000187096806;
  BAS[ATNO][  9].a[ 12] =      2184.700000000000;     BAS[ATNO][  9].d[ 12] =         0.001629939194;
  BAS[ATNO][  9].a[ 13] =       706.270000000000;     BAS[ATNO][  9].d[ 13] =         0.009019019689;
  BAS[ATNO][  9].a[ 14] =       269.180000000000;     BAS[ATNO][  9].d[ 14] =         0.035287402180;
  BAS[ATNO][  9].a[ 15] =       113.100000000000;     BAS[ATNO][  9].d[ 15] =         0.102188027700;
  BAS[ATNO][  9].a[ 16] =        50.433000000000;     BAS[ATNO][  9].d[ 16] =         0.194385847923;
  BAS[ATNO][  9].a[ 17] =        23.182000000000;     BAS[ATNO][  9].d[ 17] =         0.162914070772;
  BAS[ATNO][  9].a[ 18] =        10.601000000000;     BAS[ATNO][  9].d[ 18] =        -0.207058970218;
  BAS[ATNO][  9].a[ 19] =         4.811300000000;     BAS[ATNO][  9].d[ 19] =        -0.570347538063;
  BAS[ATNO][  9].a[ 20] =         2.122100000000;     BAS[ATNO][  9].d[ 20] =        -0.398285092780;
  BAS[ATNO][  9].a[ 21] =         0.774180000000;     BAS[ATNO][  9].d[ 21] =        -0.048372315398;
  BAS[ATNO][  9].a[ 22] =      9221.400000000000;     BAS[ATNO][  9].d[ 22] =        -0.000169360691;
  BAS[ATNO][  9].a[ 23] =      2184.700000000000;     BAS[ATNO][  9].d[ 23] =        -0.001482559015;
  BAS[ATNO][  9].a[ 24] =       706.270000000000;     BAS[ATNO][  9].d[ 24] =        -0.008179816861;
  BAS[ATNO][  9].a[ 25] =       269.180000000000;     BAS[ATNO][  9].d[ 25] =        -0.032259396539;
  BAS[ATNO][  9].a[ 26] =       113.100000000000;     BAS[ATNO][  9].d[ 26] =        -0.093529895127;
  BAS[ATNO][  9].a[ 27] =        50.433000000000;     BAS[ATNO][  9].d[ 27] =        -0.181099261110;
  BAS[ATNO][  9].a[ 28] =        23.182000000000;     BAS[ATNO][  9].d[ 28] =        -0.145999887998;
  BAS[ATNO][  9].a[ 29] =        10.601000000000;     BAS[ATNO][  9].d[ 29] =         0.237782456174;
  BAS[ATNO][  9].a[ 30] =         4.811300000000;     BAS[ATNO][  9].d[ 30] =         0.718799211098;
  BAS[ATNO][  9].a[ 31] =         2.122100000000;     BAS[ATNO][  9].d[ 31] =         0.414020681077;
  BAS[ATNO][  9].a[ 32] =         0.774180000000;     BAS[ATNO][  9].d[ 32] =        -1.140552840433;
  BAS[ATNO][  9].a[ 33] =         0.306500000000;     BAS[ATNO][  9].d[ 33] =         1.967730467659;
  BAS[ATNO][  9].a[ 34] =         0.107760000000;     BAS[ATNO][  9].d[ 34] =        -0.395964847613;

  // Basis function  11 L = p
  InitBFNGauss(BAS[ATNO][ 10]);
  BAS[ATNO][ 10].l  = 1;
  BAS[ATNO][ 10].ng = 35;
  BAS[ATNO][ 10].a[  0] =      9221.400000000000;     BAS[ATNO][ 10].d[  0] =         0.000017170966;
  BAS[ATNO][ 10].a[  1] =      2184.700000000000;     BAS[ATNO][ 10].d[  1] =         0.000149291680;
  BAS[ATNO][ 10].a[  2] =       706.270000000000;     BAS[ATNO][ 10].d[  2] =         0.000814861276;
  BAS[ATNO][ 10].a[  3] =       269.180000000000;     BAS[ATNO][ 10].d[  3] =         0.003115538494;
  BAS[ATNO][ 10].a[  4] =       113.100000000000;     BAS[ATNO][ 10].d[  4] =         0.008551807265;
  BAS[ATNO][ 10].a[  5] =        50.433000000000;     BAS[ATNO][ 10].d[  5] =         0.015237887575;
  BAS[ATNO][ 10].a[  6] =        23.182000000000;     BAS[ATNO][ 10].d[  6] =         0.014167578352;
  BAS[ATNO][ 10].a[  7] =        10.601000000000;     BAS[ATNO][ 10].d[  7] =         0.004462262998;
  BAS[ATNO][ 10].a[  8] =         4.811300000000;     BAS[ATNO][ 10].d[  8] =         0.000063365232;
  BAS[ATNO][ 10].a[  9] =         2.122100000000;     BAS[ATNO][ 10].d[  9] =         0.000048374198;
  BAS[ATNO][ 10].a[ 10] =         0.774180000000;     BAS[ATNO][ 10].d[ 10] =        -0.000020736327;
  BAS[ATNO][ 10].a[ 11] =      9221.400000000000;     BAS[ATNO][ 10].d[ 11] =        -0.000087448402;
  BAS[ATNO][ 10].a[ 12] =      2184.700000000000;     BAS[ATNO][ 10].d[ 12] =        -0.000761827959;
  BAS[ATNO][ 10].a[ 13] =       706.270000000000;     BAS[ATNO][ 10].d[ 13] =        -0.004215458704;
  BAS[ATNO][ 10].a[ 14] =       269.180000000000;     BAS[ATNO][ 10].d[ 14] =        -0.016493210103;
  BAS[ATNO][ 10].a[ 15] =       113.100000000000;     BAS[ATNO][ 10].d[ 15] =        -0.047762331787;
  BAS[ATNO][ 10].a[ 16] =        50.433000000000;     BAS[ATNO][ 10].d[ 16] =        -0.090855275047;
  BAS[ATNO][ 10].a[ 17] =        23.182000000000;     BAS[ATNO][ 10].d[ 17] =        -0.076145474927;
  BAS[ATNO][ 10].a[ 18] =        10.601000000000;     BAS[ATNO][ 10].d[ 18] =         0.096778648710;
  BAS[ATNO][ 10].a[ 19] =         4.811300000000;     BAS[ATNO][ 10].d[ 19] =         0.266578472647;
  BAS[ATNO][ 10].a[ 20] =         2.122100000000;     BAS[ATNO][ 10].d[ 20] =         0.186157079019;
  BAS[ATNO][ 10].a[ 21] =         0.774180000000;     BAS[ATNO][ 10].d[ 21] =         0.022609053422;
  BAS[ATNO][ 10].a[ 22] =      9221.400000000000;     BAS[ATNO][ 10].d[ 22] =         0.000076850896;
  BAS[ATNO][ 10].a[ 23] =      2184.700000000000;     BAS[ATNO][ 10].d[ 23] =         0.000672741641;
  BAS[ATNO][ 10].a[ 24] =       706.270000000000;     BAS[ATNO][ 10].d[ 24] =         0.003711760113;
  BAS[ATNO][ 10].a[ 25] =       269.180000000000;     BAS[ATNO][ 10].d[ 25] =         0.014638364573;
  BAS[ATNO][ 10].a[ 26] =       113.100000000000;     BAS[ATNO][ 10].d[ 26] =         0.042441113297;
  BAS[ATNO][ 10].a[ 27] =        50.433000000000;     BAS[ATNO][ 10].d[ 27] =         0.082177513919;
  BAS[ATNO][ 10].a[ 28] =        23.182000000000;     BAS[ATNO][ 10].d[ 28] =         0.066250451574;
  BAS[ATNO][ 10].a[ 29] =        10.601000000000;     BAS[ATNO][ 10].d[ 29] =        -0.107898679333;
  BAS[ATNO][ 10].a[ 30] =         4.811300000000;     BAS[ATNO][ 10].d[ 30] =        -0.326169923683;
  BAS[ATNO][ 10].a[ 31] =         2.122100000000;     BAS[ATNO][ 10].d[ 31] =        -0.187870398110;
  BAS[ATNO][ 10].a[ 32] =         0.774180000000;     BAS[ATNO][ 10].d[ 32] =         0.517549306089;
  BAS[ATNO][ 10].a[ 33] =         0.306500000000;     BAS[ATNO][ 10].d[ 33] =        -1.427983339184;
  BAS[ATNO][ 10].a[ 34] =         0.107760000000;     BAS[ATNO][ 10].d[ 34] =         1.599310585156;

  // Basis function  12 L = d
  InitBFNGauss(BAS[ATNO][ 11]);
  BAS[ATNO][ 11].l  = 2;
  BAS[ATNO][ 11].ng = 9;
  BAS[ATNO][ 11].a[  0] =       456.330000000000;     BAS[ATNO][ 11].d[  0] =         0.001521891479;
  BAS[ATNO][ 11].a[  1] =       136.350000000000;     BAS[ATNO][ 11].d[  1] =         0.013243203209;
  BAS[ATNO][ 11].a[  2] =        51.762000000000;     BAS[ATNO][ 11].d[  2] =         0.063864664878;
  BAS[ATNO][ 11].a[  3] =        22.080000000000;     BAS[ATNO][ 11].d[  3] =         0.185504902416;
  BAS[ATNO][ 11].a[  4] =        10.022000000000;     BAS[ATNO][ 11].d[  4] =         0.350489538623;
  BAS[ATNO][ 11].a[  5] =         4.547600000000;     BAS[ATNO][ 11].d[  5] =         0.423972442328;
  BAS[ATNO][ 11].a[  6] =         2.012800000000;     BAS[ATNO][ 11].d[  6] =         0.307897267067;
  BAS[ATNO][ 11].a[  7] =         0.830980000000;     BAS[ATNO][ 11].d[  7] =        -0.297423965834;
  BAS[ATNO][ 11].a[  8] =         0.308000000000;     BAS[ATNO][ 11].d[  8] =         0.111374492323;

  // Basis function  13 L = d
  InitBFNGauss(BAS[ATNO][ 12]);
  BAS[ATNO][ 12].l  = 2;
  BAS[ATNO][ 12].ng = 9;
  BAS[ATNO][ 12].a[  0] =       456.330000000000;     BAS[ATNO][ 12].d[  0] =        -0.000305781754;
  BAS[ATNO][ 12].a[  1] =       136.350000000000;     BAS[ATNO][ 12].d[  1] =        -0.002660853266;
  BAS[ATNO][ 12].a[  2] =        51.762000000000;     BAS[ATNO][ 12].d[  2] =        -0.012831827726;
  BAS[ATNO][ 12].a[  3] =        22.080000000000;     BAS[ATNO][ 12].d[  3] =        -0.037272049491;
  BAS[ATNO][ 12].a[  4] =        10.022000000000;     BAS[ATNO][ 12].d[  4] =        -0.070421122351;
  BAS[ATNO][ 12].a[  5] =         4.547600000000;     BAS[ATNO][ 12].d[  5] =        -0.085185467595;
  BAS[ATNO][ 12].a[  6] =         2.012800000000;     BAS[ATNO][ 12].d[  6] =        -0.061863390277;
  BAS[ATNO][ 12].a[  7] =         0.830980000000;     BAS[ATNO][ 12].d[  7] =         1.249467310021;
  BAS[ATNO][ 12].a[  8] =         0.308000000000;     BAS[ATNO][ 12].d[  8] =        -0.315602027999;

  // Basis function  14 L = d
  InitBFNGauss(BAS[ATNO][ 13]);
  BAS[ATNO][ 13].l  = 2;
  BAS[ATNO][ 13].ng = 9;
  BAS[ATNO][ 13].a[  0] =       456.330000000000;     BAS[ATNO][ 13].d[  0] =         0.000104313188;
  BAS[ATNO][ 13].a[  1] =       136.350000000000;     BAS[ATNO][ 13].d[  1] =         0.000907713045;
  BAS[ATNO][ 13].a[  2] =        51.762000000000;     BAS[ATNO][ 13].d[  2] =         0.004377399374;
  BAS[ATNO][ 13].a[  3] =        22.080000000000;     BAS[ATNO][ 13].d[  3] =         0.012714840755;
  BAS[ATNO][ 13].a[  4] =        10.022000000000;     BAS[ATNO][ 13].d[  4] =         0.024023185435;
  BAS[ATNO][ 13].a[  5] =         4.547600000000;     BAS[ATNO][ 13].d[  5] =         0.029059836255;
  BAS[ATNO][ 13].a[  6] =         2.012800000000;     BAS[ATNO][ 13].d[  6] =         0.021103834285;
  BAS[ATNO][ 13].a[  7] =         0.830980000000;     BAS[ATNO][ 13].d[  7] =        -0.681387575821;
  BAS[ATNO][ 13].a[  8] =         0.308000000000;     BAS[ATNO][ 13].d[  8] =         1.315340853951;

  // Basis function  15 L = f
  InitBFNGauss(BAS[ATNO][ 14]);
  BAS[ATNO][ 14].l  = 3;
  BAS[ATNO][ 14].ng = 1;
  BAS[ATNO][ 14].a[  0] =         0.590000000000;     BAS[ATNO][ 14].d[  0] =         1.000000000000;

-------
TIMINGS
-------

Total SCF time: 0 days 0 hours 0 min 2 sec 

Total time                  ....       2.983 sec
Sum of individual times     ....       2.772 sec  ( 92.9%)

Fock matrix formation       ....       2.021 sec  ( 67.7%)
  XC integration            ....       0.023 sec  (  1.1% of F)
    Basis function eval.    ....       0.007 sec  ( 31.5% of XC)
    Density eval.           ....       0.001 sec  (  5.4% of XC)
    XC-Functional eval.     ....       0.002 sec  (  7.6% of XC)
    XC-Potential eval.      ....       0.001 sec  (  6.6% of XC)
Diagonalization             ....       0.001 sec  (  0.0%)
Density matrix formation    ....       0.000 sec  (  0.0%)
Population analysis         ....       0.001 sec  (  0.0%)
Initial guess               ....       0.075 sec  (  2.5%)
Orbital Transformation      ....       0.000 sec  (  0.0%)
Orbital Orthonormalization  ....       0.000 sec  (  0.0%)
DIIS solution               ....       0.000 sec  (  0.0%)
SOSCF solution              ....       0.001 sec  (  0.0%)
Grid generation             ....       0.674 sec  ( 22.6%)

-------------------------   --------------------
FINAL SINGLE POINT ENERGY     -1281.443720050047
-------------------------   --------------------


                            ***************************************
                            *     ORCA property calculations      *
                            ***************************************

                                    ---------------------
                                    Active property flags
                                    ---------------------
   (+) Dipole Moment


------------------------------------------------------------------------------
                       ORCA ELECTRIC PROPERTIES CALCULATION
------------------------------------------------------------------------------

Dipole Moment Calculation                       ... on
Quadrupole Moment Calculation                   ... off
Polarizability Calculation                      ... off
GBWName                                         ... Kr_pc-2_274.071978_.gbw
Electron density file                           ... Kr_pc-2_274.071978_.scfp
The origin for moment calculation is the CENTER OF MASS  = ( 0.000000,  0.000000  0.000000)

-------------
DIPOLE MOMENT
-------------
                                X             Y             Z
Electronic contribution:      0.00000      -0.00000      -0.00000
Nuclear contribution   :      0.00000       0.00000       0.00000
                        -----------------------------------------
Total Dipole Moment    :      0.00000      -0.00000      -0.00000
                        -----------------------------------------
Magnitude (a.u.)       :      0.00000
Magnitude (Debye)      :      0.00000



--------------------
Rotational spectrum 
--------------------
 
Rotational constants in cm-1:     0.000000     0.000000     0.000000 
Rotational constants in MHz :     0.000000     0.000000     0.000000 

 Dipole components along the rotational axes: 
x,y,z [a.u.] :     0.000000    -0.000000    -0.000000 
x,y,z [Debye]:     0.000000    -0.000000    -0.000000 

 

Timings for individual modules:

Sum of individual times         ...        4.607 sec (=   0.077 min)
GTO integral calculation        ...        0.901 sec (=   0.015 min)  19.6 %
Relativistic integrals          ...        0.474 sec (=   0.008 min)  10.3 %
SCF iterations                  ...        3.232 sec (=   0.054 min)  70.2 %
                             ****ORCA TERMINATED NORMALLY****
TOTAL RUN TIME: 0 days 0 hours 0 minutes 4 seconds 937 msec
