
                                 *****************
                                 * O   R   C   A *
                                 *****************

           --- An Ab Initio, DFT and Semiempirical electronic structure package ---

                  #######################################################
                  #                        -***-                        #
                  #          Department of theory and spectroscopy      #
                  #               Directorship: Frank Neese             #
                  #        Max Planck Institute fuer Kohlenforschung    #
                  #                Kaiser Wilhelm Platz 1               #
                  #                 D-45470 Muelheim/Ruhr               #
                  #                      Germany                        #
                  #                                                     #
                  #                  All rights reserved                #
                  #                        -***-                        #
                  #######################################################


                         Program Version 4.2.1 -  RELEASE  -


 With contributions from (in alphabetic order):
   Daniel Aravena         : Magnetic Suceptibility
   Michael Atanasov       : Ab Initio Ligand Field Theory (pilot matlab implementation)
   Alexander A. Auer      : GIAO ZORA, VPT2
   Ute Becker             : Parallelization
   Giovanni Bistoni       : ED, misc. LED, open-shell LED, HFLD
   Martin Brehm           : Molecular dynamics
   Dmytro Bykov           : SCF Hessian
   Vijay G. Chilkuri      : MRCI spin determinant printing, contributions to CSF-ICE
   Dipayan Datta          : RHF DLPNO-CCSD density
   Achintya Kumar Dutta   : EOM-CC, STEOM-CC
   Dmitry Ganyushin       : Spin-Orbit,Spin-Spin,Magnetic field MRCI
   Miquel Garcia          : C-PCM Hessian, Gaussian charge scheme
   Yang Guo               : DLPNO-NEVPT2, CIM, IAO-localization
   Andreas Hansen         : Spin unrestricted coupled pair/coupled cluster methods
   Benjamin Helmich-Paris : CASSCF linear response (MC-RPA)
   Lee Huntington         : MR-EOM, pCC
   Robert Izsak           : Overlap fitted RIJCOSX, COSX-SCS-MP3, EOM
   Christian Kollmar      : KDIIS, OOCD, Brueckner-CCSD(T), CCSD density
   Simone Kossmann        : Meta GGA functionals, TD-DFT gradient, OOMP2, MP2 Hessian
   Martin Krupicka        : AUTO-CI
   Lucas Lang             : DCDCAS
   Dagmar Lenk            : GEPOL surface, SMD
   Dimitrios Liakos       : Extrapolation schemes; Compound Job, initial MDCI parallelization
   Dimitrios Manganas     : Further ROCIS development; embedding schemes
   Dimitrios Pantazis     : SARC Basis sets
   Taras Petrenko         : DFT Hessian,TD-DFT gradient, ASA, ECA, R-Raman, ABS, FL, XAS/XES, NRVS
   Peter Pinski           : DLPNO-MP2, DLPNO-MP2 Gradient
   Christoph Reimann      : Effective Core Potentials
   Marius Retegan         : Local ZFS, SOC
   Christoph Riplinger    : Optimizer, TS searches, QM/MM, DLPNO-CCSD(T), (RO)-DLPNO pert. Triples
   Tobias Risthaus        : Range-separated hybrids, TD-DFT gradient, RPA, STAB
   Michael Roemelt        : Original ROCIS implementation
   Masaaki Saitow         : Open-shell DLPNO-CCSD energy and density
   Barbara Sandhoefer     : DKH picture change effects
   Avijit Sen             : IP-ROCIS
   Kantharuban Sivalingam : CASSCF convergence, NEVPT2, FIC-MRCI
   Bernardo de Souza      : ESD, SOC TD-DFT
   Georgi Stoychev        : AutoAux, RI-MP2 NMR
   Willem Van den Heuvel  : Paramagnetic NMR
   Boris Wezisla          : Elementary symmetry handling
   Frank Wennmohs         : Technical directorship


 We gratefully acknowledge several colleagues who have allowed us to
 interface, adapt or use parts of their codes:
   Stefan Grimme, W. Hujo, H. Kruse,             : VdW corrections, initial TS optimization,
                  C. Bannwarth                     DFT functionals, gCP, sTDA/sTD-DF
   Ed Valeev, F. Pavosevic, A. Kumar             : LibInt (2-el integral package), F12 methods
   Garnet Chan, S. Sharma, J. Yang, R. Olivares  : DMRG
   Ulf Ekstrom                                   : XCFun DFT Library
   Mihaly Kallay                                 : mrcc  (arbitrary order and MRCC methods)
   Andreas Klamt, Michael Diedenhofen            : otool_cosmo (COSMO solvation model)
   Jiri Pittner, Ondrej Demel                    : Mk-CCSD
   Frank Weinhold                                : gennbo (NPA and NBO analysis)
   Christopher J. Cramer and Donald G. Truhlar   : smd solvation model
   Lars Goerigk                                  : TD-DFT with DH, B97 family of functionals
   V. Asgeirsson, H. Jonsson                     : NEB implementation
   FAccTs GmbH                                   : IRC, NEB, NEB-TS, Multilevel, MM, QM/MM, CI optimization
   S Lehtola, MJT Oliveira, MAL Marques          : LibXC Library


 Your calculation uses the libint2 library for the computation of 2-el integrals
 For citations please refer to: http://libint.valeyev.net

 Your ORCA version has been built with support for libXC version: 4.2.3
 For citations please refer to: https://tddft.org/programs/libxc/

 This ORCA versions uses:
   CBLAS   interface :  Fast vector & matrix operations
   LAPACKE interface :  Fast linear algebra routines
   SCALAPACK package :  Parallel linear algebra routines


----- Orbital basis set information -----
Your calculation utilizes the basis: pc-1
   H, C-F              : F. Jensen, J. Chem. Phys. 115, 9113 (2001).
                         F. Jensen, J. Chem. Phys. 116, 7372 (2002).
                         F. Jensen, J. Chem. Phys. 117, 9234 (2002).
   Si-Cl               : F. Jensen, T. Helgaker, J. Chem. Phys. 121, 3463 (2004).
   He-B, Ne-Mg, Al, Ar : F. Jensen, J. Phys. Chem. A 111, 11198 (2007).
   K, Ca, Ga-Kr        : F. Jensen, J. Chem. Phys. 136, 094110 (2012).
   Sc-Zn               : F. Jensen, J. Chem. Phys. 138, 014107 (2013).

================================================================================
                                        WARNINGS
                       Please study these warnings very carefully!
================================================================================


INFO   : the flag for use of LIBINT has been found!

================================================================================
                                       INPUT FILE
================================================================================
NAME = Kr_pc-1_137.035989_.inp
|  1> ! LDA pc-1 nori grid5 finalgrid6 verytightscf
|  2> %Pal NProcs 18 End
|  3> 
|  4> % REL
|  5>   Method ZORA
|  6>   ModelPot 1, 0, 0, 0
|  7>   velit 137.035989
|  8> END
|  9> 
| 10> *xyz 34 1
| 11> Kr 0.0 0.0 0.0
| 12> **                         ****END OF INPUT****
================================================================================

                       ****************************
                       * Single Point Calculation *
                       ****************************

---------------------------------
CARTESIAN COORDINATES (ANGSTROEM)
---------------------------------
  Kr     0.000000    0.000000    0.000000

----------------------------
CARTESIAN COORDINATES (A.U.)
----------------------------
  NO LB      ZA    FRAG     MASS         X           Y           Z
   0 Kr   36.0000    0    83.800    0.000000    0.000000    0.000000

--------------------------------
INTERNAL COORDINATES (ANGSTROEM)
--------------------------------
 Kr     0   0   0     0.000000000000     0.00000000     0.00000000

---------------------------
INTERNAL COORDINATES (A.U.)
---------------------------
 Kr     0   0   0     0.000000000000     0.00000000     0.00000000

---------------------
BASIS SET INFORMATION
---------------------
There are 1 groups of distinct atoms

 Group   1 Type Kr  : 45s28p7d contracted to 5s4p2d pattern {111111111/9991/61}

Atom   0Kr   basis set group =>   1


           ************************************************************
           *        Program running with 18 parallel MPI-processes    *
           *              working on a common directory               *
           ************************************************************
------------------------------------------------------------------------------
                           ORCA GTO INTEGRAL CALCULATION
------------------------------------------------------------------------------

                         BASIS SET STATISTICS AND STARTUP INFO

 # of primitive gaussian shells          ...   80
 # of primitive gaussian functions       ...  164
 # of contracted shells                  ...   11
 # of contracted basis functions         ...   27
 Highest angular momentum                ...    2
 Maximum contraction depth               ...   11
 Integral package used                   ... LIBINT
 Integral threshhold            Thresh   ...  1.000e-12
 Primitive cut-off              TCut     ...  1.000e-14


------------------------------ INTEGRAL EVALUATION ----------------------------


 * One electron integrals 
 Pre-screening matrix                    ... done
 Shell pair data                         ... done (   0.000 sec)



           ************************************************************
           *        Program running with 18 parallel MPI-processes    *
           *              working on a common directory               *
           ************************************************************
------------------------------------------------------------------------------
                          ORCA RELATIVISTIC HAMILTONIAN
------------------------------------------------------------------------------

Relativistic Method            ... ZORA(MP)
Treatment of potential         ... Van Wuellen
Nucleus model                  ... Point Nucleus
Speed of light used            ... 137.03598900000000


            *************************************************
            *         ZERO ORDER REGULAR APPROXIMATION      *
            *                     ZORA(MP)                  *
            *            Programmed by FN according to      *
            *                   C. van Wuellen              *
            *       J. Chem. Phys. (1998) vol 109, 392-399  *
            *************************************************

Terms included in model potential: +V(e,N)
Basis function cutoff value   ... 1.000000e-12
Loading the fitted atomic densities  (DKH4)  ... done
Calculating the cutoffs                      ... done
Number of fit functions                      ... 27
Setting up the integration grid ... done


           ************************************************************
           *        Program running with 18 parallel MPI-processes    *
           *              working on a common directory               *
           ************************************************************
-------------------------------------------------------------------------------
                                 ORCA SCF
-------------------------------------------------------------------------------

------------
SCF SETTINGS
------------
Hamiltonian:
 Density Functional     Method          .... DFT(GTOs)
 Exchange Functional    Exchange        .... Slater
   X-Alpha parameter    XAlpha          ....  0.666667
 Correlation Functional Correlation     .... VWN-5
 Gradients option       PostSCFGGA      .... off
   Density functional embedding theory  .... OFF

Relativistic Settings:
 Scalar relativistic method             .... ZORA
 Speed of light used       Velit        ....       137.035989
Orbital energies will be scaled


General Settings:
 Integral files         IntName         .... Kr_pc-1_137.035989_
 Hartree-Fock type      HFTyp           .... RHF
 Total Charge           Charge          ....   34
 Multiplicity           Mult            ....    1
 Number of Electrons    NEL             ....    2
 Basis Dimension        Dim             ....   27
 Nuclear Repulsion      ENuc            ....      0.0000000000 Eh

Convergence Acceleration:
 DIIS                   CNVDIIS         .... on
   Start iteration      DIISMaxIt       ....    12
   Startup error        DIISStart       ....  0.200000
   # of expansion vecs  DIISMaxEq       ....     5
   Bias factor          DIISBfac        ....   1.050
   Max. coefficient     DIISMaxC        ....  10.000
 Newton-Raphson         CNVNR           .... off
 SOSCF                  CNVSOSCF        .... on
   Start iteration      SOSCFMaxIt      ....   150
   Startup grad/error   SOSCFStart      ....  0.003300
 Level Shifting         CNVShift        .... on
   Level shift para.    LevelShift      ....    0.2500
   Turn off err/grad.   ShiftErr        ....    0.0010
 Zerner damping         CNVZerner       .... off
 Static damping         CNVDamp         .... on
   Fraction old density DampFac         ....    0.7000
   Max. Damping (<1)    DampMax         ....    0.9800
   Min. Damping (>=0)   DampMin         ....    0.0000
   Turn off err/grad.   DampErr         ....    0.1000
 Fernandez-Rico         CNVRico         .... off

SCF Procedure:
 Maximum # iterations   MaxIter         ....   125
 SCF integral mode      SCFMode         .... Direct
   Integral package                     .... LIBINT
 Reset frequency        DirectResetFreq ....    20
 Integral Threshold     Thresh          ....  1.000e-12 Eh
 Primitive CutOff       TCut            ....  1.000e-14 Eh

Convergence Tolerance:
 Convergence Check Mode ConvCheckMode   .... Total+1el-Energy
 Convergence forced     ConvForced      .... 0
 Energy Change          TolE            ....  1.000e-09 Eh
 1-El. energy change                    ....  1.000e-06 Eh
 Orbital Gradient       TolG            ....  2.000e-06
 Orbital Rotation angle TolX            ....  2.000e-06
 DIIS Error             TolErr          ....  1.000e-08


Diagonalization of the overlap matrix:
Smallest eigenvalue                        ... 7.238e-02
Time for diagonalization                   ...    0.001 sec
Threshold for overlap eigenvalues          ... 1.000e-08
Number of eigenvalues below threshold      ... 0
Time for construction of square roots      ...    0.001 sec
Total time needed                          ...    0.002 sec

-------------------
DFT GRID GENERATION
-------------------

General Integration Accuracy     IntAcc      ...  5.010
Radial Grid Type                 RadialGrid  ... Gauss-Chebyshev
Angular Grid (max. acc.)         AngularGrid ... Lebedev-434
Angular grid pruning method      GridPruning ... 3 (G Style)
Weight generation scheme         WeightScheme... Becke
Basis function cutoff            BFCut       ...    1.0000e-12
Integration weight cutoff        WCut        ...    1.0000e-14
Grids for H and He will be reduced by one unit

# of grid points (after initial pruning)     ...  16106 (   0.0 sec)
# of grid points (after weights+screening)   ...  16106 (   0.0 sec)
Grid point division into batches done        ...    0.2 sec
Reduced shell lists constructed in    0.2 sec

Total number of grid points                  ...    16106
Total number of batches                      ...      252
Average number of points per batch           ...       63
Average number of grid points per atom       ...    16106
Average number of shells per batch           ...     0.00 ( 0.00%)
Average number of basis functions per batch  ...     0.00 ( 0.00%)
Average number of large shells per batch     ...     0.00 ( -nan%)
Average number of large basis fcns per batch ...     0.00 ( -nan%)
Maximum spatial batch extension              ...  17.34, 17.34, 17.34 au
Average spatial batch extension              ...   0.86,  0.87,  0.87 au

Time for grid setup =    0.250 sec

------------------------------
INITIAL GUESS: MODEL POTENTIAL
------------------------------
Loading ZORA relativistic densities                ... done
Calculating cut-offs                               ... done
Setting up the integral package                    ... done
Initializing the effective Hamiltonian             ... done
Starting the Coulomb interaction                   ... done (   0.0 sec)
Reading the grid                                   ... done
Mapping shells                                     ... done
Starting the XC term evaluation                    ... done (   0.0 sec)
  promolecular density results
     # of electrons  =     36.000000565
     EX              =    -91.042004939
     EC              =     -3.295965580
     EX+EC           =    -94.337970520
Transforming the Hamiltonian                       ... done (   0.0 sec)
Diagonalizing the Hamiltonian                      ... done (   0.0 sec)
Back transforming the eigenvectors                 ... done (   0.0 sec)
Now organizing SCF variables                       ... done
                      ------------------
                      INITIAL GUESS DONE (   0.3 sec)
                      ------------------
--------------
SCF ITERATIONS
--------------
ITER       Energy         Delta-E        Max-DP      RMS-DP      [F,P]     Damp
               ***  Starting incremental Fock matrix formation  ***
  0  -1311.7700239611   0.000000000000 0.00344053  0.00013012  5.3241684 0.7000
                      *** Initiating the SOSCF procedure ***
                      *** Re-Reading the Fockian *** 
                      *** Removing any level shift *** 
ITER      Energy       Delta-E        Grad      Rot      Max-DP    RMS-DP
  1  -1311.77974642  -0.0097224568  0.001048  0.001048  0.008023  0.000303
               *** Restarting incremental Fock matrix formation ***
  2  -1311.80236264  -0.0226162177  0.005683  0.000012  0.000024  0.000001
  3  -1311.80236278  -0.0000001455  0.000017  0.000000  0.000000  0.000000
                 **** Energy Check signals convergence ****
              ***Rediagonalizing the Fockian in SOSCF/NRSCF***

               *****************************************************
               *                     SUCCESS                       *
               *           SCF CONVERGED AFTER   4 CYCLES          *
               *****************************************************

Setting up the final grid:

General Integration Accuracy     IntAcc      ...  5.340
Radial Grid Type                 RadialGrid  ... Gauss-Chebyshev
Angular Grid (max. acc.)         AngularGrid ... Lebedev-590
Angular grid pruning method      GridPruning ... 3 (G Style)
Weight generation scheme         WeightScheme... Becke
Basis function cutoff            BFCut       ...    1.0000e-12
Integration weight cutoff        WCut        ...    1.0000e-14
Grids for H and He will be reduced by one unit

# of grid points (after initial pruning)     ...  24180 (   0.0 sec)
# of grid points (after weights+screening)   ...  24180 (   0.0 sec)
Grid point division into batches done        ...    0.4 sec
Reduced shell lists constructed in    0.4 sec

Total number of grid points                  ...    24180
Total number of batches                      ...      378
Average number of points per batch           ...       63
Average number of grid points per atom       ...    24180
Average number of shells per batch           ...     0.00 ( 0.00%)
Average number of basis functions per batch  ...     0.00 ( 0.00%)
Average number of large shells per batch     ...     0.00 ( -nan%)
Average number of large basis fcns per batch ...     0.00 ( -nan%)
Maximum spatial batch extension              ...  17.58, 17.58, 17.58 au
Average spatial batch extension              ...   0.77,  0.77,  0.77 au

Final grid set up in    0.4 sec
Final integration                            ... done (   0.0 sec)
Change in XC energy                          ...     0.000038382
Integrated number of electrons               ...     2.000001790
Previous integrated no of electrons          ...     2.000004690

----------------
TOTAL SCF ENERGY
----------------

Total Energy       :        -1311.80232440 Eh          -35695.95599 eV

Components:
Nuclear Repulsion  :            0.00000000 Eh               0.00000 eV
Electronic Energy  :        -1311.80232440 Eh          -35695.95599 eV
One Electron Energy:        -1337.09067200 Eh          -36384.08692 eV
Two Electron Energy:           25.28834760 Eh             688.13092 eV

Virial components:
Potential Energy   :        -2552.07944704 Eh          -69445.61230 eV
Kinetic Energy     :         1240.27712264 Eh           33749.65631 eV
Virial Ratio       :            2.05766873


DFT components:
N(Alpha)           :        1.000000895097 electrons
N(Beta)            :        1.000000895097 electrons
N(Total)           :        2.000001790193 electrons
E(X)               :      -19.192968722473 Eh       
E(C)               :       -0.278456521036 Eh       
E(XC)              :      -19.471425243508 Eh       
DFET-embed. en.    :        0.000000000000 Eh       

---------------
SCF CONVERGENCE
---------------

  Last Energy change         ...   -2.2737e-12  Tolerance :   1.0000e-09
  Last MAX-Density change    ...    0.0000e+00  Tolerance :   1.0000e-08
  Last RMS-Density change    ...    0.0000e+00  Tolerance :   1.0000e-09
  Last Orbital Gradient      ...    1.1997e-11  Tolerance :   2.0000e-06
  Last Orbital Rotation      ...    0.0000e+00  Tolerance :   2.0000e-06

================================================================================
                                        WARNING
Number of found core electrons (2) does not match given number of chemical core electrons (18)
================================================================================
             **** THE GBW FILE WAS UPDATED (Kr_pc-1_137.035989_.gbw) ****
             **** DENSITY FILE WAS UPDATED (Kr_pc-1_137.035989_.scfp) ****
             **** ENERGY FILE WAS UPDATED (Kr_pc-1_137.035989_.en.tmp) ****
             **** THE GBW FILE WAS UPDATED (Kr_pc-1_137.035989_.gbw) ****
             **** DENSITY FILE WAS UPDATED (Kr_pc-1_137.035989_.scfp) ****
----------------
ORBITAL ENERGIES
----------------

  NO   OCC          E(Eh)            E(eV) 
   0   2.0000    -636.729970    -17326.3033 
   1   0.0000    -151.195490     -4114.2385 
   2   0.0000    -147.955436     -4026.0721 
   3   0.0000    -147.955436     -4026.0721 
   4   0.0000    -147.955436     -4026.0721 
   5   0.0000     -61.057823     -1661.4678 
   6   0.0000     -58.759665     -1598.9318 
   7   0.0000     -58.759665     -1598.9318 
   8   0.0000     -58.759665     -1598.9318 
   9   0.0000     -54.246429     -1476.1204 
  10   0.0000     -54.246429     -1476.1204 
  11   0.0000     -54.246429     -1476.1204 
  12   0.0000     -54.246429     -1476.1204 
  13   0.0000     -54.246429     -1476.1204 
  14   0.0000     -26.872854      -731.2475 
  15   0.0000     -24.283444      -660.7861 
  16   0.0000     -24.283444      -660.7861 
  17   0.0000     -24.283444      -660.7861 
  18   0.0000     -16.468058      -448.1186 
  19   0.0000     -16.468058      -448.1186 
  20   0.0000     -16.468058      -448.1186 
  21   0.0000     -16.468058      -448.1186 
  22   0.0000     -16.468058      -448.1186 
  23   0.0000     -13.512228      -367.6864 
  24   0.0000     -11.606459      -315.8278 
  25   0.0000     -11.606459      -315.8278 
  26   0.0000     -11.606459      -315.8278 

                    ********************************
                    * MULLIKEN POPULATION ANALYSIS *
                    ********************************

-----------------------
MULLIKEN ATOMIC CHARGES
-----------------------
   0 Kr:   34.000000
Sum of atomic charges:   34.0000000

--------------------------------
MULLIKEN REDUCED ORBITAL CHARGES
--------------------------------
  0 Krs       :     2.000000  s :     2.000000
      pz      :     0.000000  p :     0.000000
      px      :     0.000000
      py      :     0.000000
      dz2     :     0.000000  d :     0.000000
      dxz     :     0.000000
      dyz     :     0.000000
      dx2y2   :     0.000000
      dxy     :     0.000000


                     *******************************
                     * LOEWDIN POPULATION ANALYSIS *
                     *******************************

----------------------
LOEWDIN ATOMIC CHARGES
----------------------
   0 Kr:   34.000000

-------------------------------
LOEWDIN REDUCED ORBITAL CHARGES
-------------------------------
  0 Krs       :     2.000000  s :     2.000000
      pz      :     0.000000  p :     0.000000
      px      :     0.000000
      py      :     0.000000
      dz2     :     0.000000  d :     0.000000
      dxz     :     0.000000
      dyz     :     0.000000
      dx2y2   :     0.000000
      dxy     :     0.000000


                      *****************************
                      * MAYER POPULATION ANALYSIS *
                      *****************************

  NA   - Mulliken gross atomic population
  ZA   - Total nuclear charge
  QA   - Mulliken gross atomic charge
  VA   - Mayer's total valence
  BVA  - Mayer's bonded valence
  FA   - Mayer's free valence

  ATOM       NA         ZA         QA         VA         BVA        FA
  0 Kr     2.0000    36.0000    34.0000     0.0000     0.0000     0.0000

  Mayer bond orders larger than 0.100000


--------------------------
ATOM BASIS FOR ELEMENT Kr
--------------------------
 NewGTO Kr
 S 45
    1     147050.000000000000         0.001334585069
    2      22074.000000000000         0.010259229018
    3       5023.600000000000         0.051333599961
    4       1419.800000000000         0.184499277917
    5        459.470000000000         0.422839929500
    6        160.840000000000         0.425623507237
    7         42.985000000000         0.069690741828
    8         18.685000000000        -0.023360771818
    9          6.044300000000         0.009497362940
   10          2.543200000000        -0.004452873133
   11          0.546630000000         0.001376466422
   12     147050.000000000000         0.000008976268
   13      22074.000000000000         0.000068985526
   14       5023.600000000000         0.000356242384
   15       1419.800000000000         0.001359807834
   16        459.470000000000         0.003897165058
   17        160.840000000000         0.005716615208
   18         42.985000000000        -0.006777255915
   19         18.685000000000        -0.015671405252
   20          6.044300000000        -0.002771268619
   21          2.543200000000         0.000499761113
   22          0.546630000000        -0.000121180708
   23     147050.000000000000         0.000000534618
   24      22074.000000000000         0.000004111051
   25       5023.600000000000         0.000021297385
   26       1419.800000000000         0.000082036995
   27        459.470000000000         0.000241704511
   28        160.840000000000         0.000380025491
   29         42.985000000000        -0.000618220825
   30         18.685000000000        -0.001997315630
   31          6.044300000000         0.000943991251
   32          2.543200000000         0.002857635319
   33          0.546630000000         0.000262690984
   34     147050.000000000000         0.000000617248
   35      22074.000000000000         0.000004745243
   36       5023.600000000000         0.000024608076
   37       1419.800000000000         0.000094849740
   38        459.470000000000         0.000280900517
   39        160.840000000000         0.000445574414
   40         42.985000000000        -0.000755700380
   41         18.685000000000        -0.002630841541
   42          6.044300000000         0.001641916294
   43          2.543200000000         0.006889544705
   44          0.546630000000        -0.006170414029
   45          0.215330000000         0.001857646406
 S 45
    1     147050.000000000000        -0.000030006244
    2      22074.000000000000        -0.000230664151
    3       5023.600000000000        -0.001154162875
    4       1419.800000000000        -0.004148203462
    5        459.470000000000        -0.009506953519
    6        160.840000000000        -0.009569538300
    7         42.985000000000        -0.001566897062
    8         18.685000000000         0.000525233679
    9          6.044300000000        -0.000213534678
   10          2.543200000000         0.000100116510
   11          0.546630000000        -0.000030947887
   12     147050.000000000000         0.000422495625
   13      22074.000000000000         0.003247015854
   14       5023.600000000000         0.016767642977
   15       1419.800000000000         0.064003536034
   16        459.470000000000         0.183432054176
   17        160.840000000000         0.269070068854
   18         42.985000000000        -0.318992384386
   19         18.685000000000        -0.737622865435
   20          6.044300000000        -0.130438277032
   21          2.543200000000         0.023522793179
   22          0.546630000000        -0.005703742569
   23     147050.000000000000         0.000007335937
   24      22074.000000000000         0.000056411164
   25       5023.600000000000         0.000292239174
   26       1419.800000000000         0.001125698019
   27        459.470000000000         0.003316629157
   28        160.840000000000         0.005214646675
   29         42.985000000000        -0.008483123499
   30         18.685000000000        -0.027406833403
   31          6.044300000000         0.012953291193
   32          2.543200000000         0.039211997315
   33          0.546630000000         0.003604602065
   34     147050.000000000000         0.000006301021
   35      22074.000000000000         0.000048440614
   36       5023.600000000000         0.000251205334
   37       1419.800000000000         0.000968249644
   38        459.470000000000         0.002867502069
   39        160.840000000000         0.004548534014
   40         42.985000000000        -0.007714376704
   41         18.685000000000        -0.026856282256
   42          6.044300000000         0.016761088324
   43          2.543200000000         0.070330179270
   44          0.546630000000        -0.062989115158
   45          0.215330000000         0.027774259905
 S 45
    1     147050.000000000000        -0.000020748820
    2      22074.000000000000        -0.000159500434
    3       5023.600000000000        -0.000798084483
    4       1419.800000000000        -0.002868413884
    5        459.470000000000        -0.006573900659
    6        160.840000000000        -0.006617176997
    7         42.985000000000        -0.001083483327
    8         18.685000000000         0.000363190377
    9          6.044300000000        -0.000147655687
   10          2.543200000000         0.000069228906
   11          0.546630000000        -0.000021399950
   12     147050.000000000000        -0.000008432126
   13      22074.000000000000        -0.000064803622
   14       5023.600000000000        -0.000334646963
   15       1419.800000000000        -0.001277376252
   16        459.470000000000        -0.003660918823
   17        160.840000000000        -0.005370073864
   18         42.985000000000         0.006366418507
   19         18.685000000000         0.014721404309
   20          6.044300000000         0.002603274252
   21          2.543200000000        -0.000469465583
   22          0.546630000000         0.000113834731
   23     147050.000000000000         0.000120692855
   24      22074.000000000000         0.000928091956
   25       5023.600000000000         0.004807999143
   26       1419.800000000000         0.018520292964
   27        459.470000000000         0.054566093754
   28        160.840000000000         0.085792799224
   29         42.985000000000        -0.139566677576
   30         18.685000000000        -0.450904750045
   31          6.044300000000         0.213111104143
   32          2.543200000000         0.645126548838
   33          0.546630000000         0.059303903128
   34     147050.000000000000         0.000042907403
   35      22074.000000000000         0.000329860954
   36       5023.600000000000         0.001710606534
   37       1419.800000000000         0.006593387724
   38        459.470000000000         0.019526527128
   39        160.840000000000         0.030973673488
   40         42.985000000000        -0.052531779348
   41         18.685000000000        -0.182880399515
   42          6.044300000000         0.114136219589
   43          2.543200000000         0.478920021775
   44          0.546630000000        -0.428930349902
   45          0.215330000000         0.151432179642
 S 45
    1     147050.000000000000         0.000055403202
    2      22074.000000000000         0.000425895771
    3       5023.600000000000         0.002131033735
    4       1419.800000000000         0.007659197594
    5        459.470000000000         0.017553535206
    6        160.840000000000         0.017669091062
    7         42.985000000000         0.002893101632
    8         18.685000000000        -0.000969785732
    9          6.044300000000         0.000394268098
   10          2.543200000000        -0.000184854031
   11          0.546630000000         0.000057141840
   12     147050.000000000000        -0.000108800061
   13      22074.000000000000        -0.000836163739
   14       5023.600000000000        -0.004317963225
   15       1419.800000000000        -0.016482037172
   16        459.470000000000        -0.047236982874
   17        160.840000000000        -0.069290279124
   18         42.985000000000         0.082146154148
   19         18.685000000000         0.189950872099
   20          6.044300000000         0.033590152419
   21          2.543200000000        -0.006057533311
   22          0.546630000000         0.001468814114
   23     147050.000000000000         0.000213722721
   24      22074.000000000000         0.001643463796
   25       5023.600000000000         0.008513997426
   26       1419.800000000000         0.032795706059
   27        459.470000000000         0.096625554196
   28        160.840000000000         0.151921755814
   29         42.985000000000        -0.247144456204
   30         18.685000000000        -0.798461432095
   31          6.044300000000         0.377376812714
   32          2.543200000000         1.142389092189
   33          0.546630000000         0.105015259689
   34     147050.000000000000        -0.000182808060
   35      22074.000000000000        -0.001405380830
   36       5023.600000000000        -0.007288081843
   37       1419.800000000000        -0.028091293002
   38        459.470000000000        -0.083193256311
   39        160.840000000000        -0.131964109159
   40         42.985000000000         0.223812957378
   41         18.685000000000         0.779166507770
   42          6.044300000000        -0.486280212989
   43          2.543200000000        -2.040450709082
   44          0.546630000000         1.827468464068
   45          0.215330000000        -0.606258644273
 S 45
    1     147050.000000000000         0.000082705397
    2      22074.000000000000         0.000635773343
    3       5023.600000000000         0.003181187824
    4       1419.800000000000         0.011433580676
    5        459.470000000000         0.026203758092
    6        160.840000000000         0.026376258825
    7         42.985000000000         0.004318795868
    8         18.685000000000        -0.001447687342
    9          6.044300000000         0.000588559839
   10          2.543200000000        -0.000275948420
   11          0.546630000000         0.000085300821
   12     147050.000000000000        -0.000173427448
   13      22074.000000000000        -0.001332846167
   14       5023.600000000000        -0.006882839408
   15       1419.800000000000        -0.026272390260
   16        459.470000000000        -0.075295816640
   17        160.840000000000        -0.110448801649
   18         42.985000000000         0.130941084382
   19         18.685000000000         0.302781955285
   20          6.044300000000         0.053542749845
   21          2.543200000000        -0.009655716554
   22          0.546630000000         0.002341291747
   23     147050.000000000000         0.000276532153
   24      22074.000000000000         0.002126449543
   25       5023.600000000000         0.011016114854
   26       1419.800000000000         0.042433800078
   27        459.470000000000         0.125022142893
   28        160.840000000000         0.196568947232
   29         42.985000000000        -0.319775961711
   30         18.685000000000        -1.033115515754
   31          6.044300000000         0.488281368178
   32          2.543200000000         1.478117600586
   33          0.546630000000         0.135877438552
   34     147050.000000000000        -0.000175389837
   35      22074.000000000000        -0.001348351462
   36       5023.600000000000        -0.006992336594
   37       1419.800000000000        -0.026951368039
   38        459.470000000000        -0.079817332334
   39        160.840000000000        -0.126609098188
   40         42.985000000000         0.214730784583
   41         18.685000000000         0.747548477506
   42          6.044300000000        -0.466547303093
   43          2.543200000000        -1.957650650778
   44          0.546630000000         1.753311075850
   45          0.215330000000        -2.100682790155
 P 28
    1       3021.600000000000         0.002988810373
    2        714.730000000000         0.024460383360
    3        230.160000000000         0.112877698248
    4         86.130000000000         0.318571914388
    5         35.027000000000         0.462879103783
    6         14.876000000000         0.242391271487
    7          5.845500000000         0.018677171838
    8          2.285600000000        -0.000642476196
    9          0.585700000000         0.000071894382
   10       3021.600000000000         0.000089595219
   11        714.730000000000         0.000733085810
   12        230.160000000000         0.003546221005
   13         86.130000000000         0.010492968916
   14         35.027000000000         0.016790579757
   15         14.876000000000        -0.002068490322
   16          5.845500000000        -0.041579366444
   17          2.285600000000        -0.034933320511
   18          0.585700000000        -0.002917208350
   19       3021.600000000000         0.000022856611
   20        714.730000000000         0.000190117483
   21        230.160000000000         0.000908336592
   22         86.130000000000         0.002769693111
   23         35.027000000000         0.004305617238
   24         14.876000000000        -0.000701475957
   25          5.845500000000        -0.015158652769
   26          2.285600000000        -0.008959120804
   27          0.585700000000         0.037423228088
   28          0.170950000000        -0.013740315217
 P 28
    1       3021.600000000000        -0.000240944892
    2        714.730000000000        -0.001971889716
    3        230.160000000000        -0.009099709073
    4         86.130000000000        -0.025681882114
    5         35.027000000000        -0.037315300061
    6         14.876000000000        -0.019540530030
    7          5.845500000000        -0.001505672357
    8          2.285600000000         0.000051793636
    9          0.585700000000        -0.000005795812
   10       3021.600000000000         0.001136891428
   11        714.730000000000         0.009302270634
   12        230.160000000000         0.044998698761
   13         86.130000000000         0.133147355072
   14         35.027000000000         0.213058982903
   15         14.876000000000        -0.026247482248
   16          5.845500000000        -0.527608793280
   17          2.285600000000        -0.443275803762
   18          0.585700000000        -0.037017032937
   19       3021.600000000000         0.000166731247
   20        714.730000000000         0.001386842755
   21        230.160000000000         0.006626008297
   22         86.130000000000         0.020203974705
   23         35.027000000000         0.031408021859
   24         14.876000000000        -0.005117029908
   25          5.845500000000        -0.110577246240
   26          2.285600000000        -0.065353756850
   27          0.585700000000         0.272989794696
   28          0.170950000000        -0.084843219612
 P 28
    1       3021.600000000000         0.000016273348
    2        714.730000000000         0.000133180857
    3        230.160000000000         0.000614591700
    4         86.130000000000         0.001734546837
    5         35.027000000000         0.002520264496
    6         14.876000000000         0.001319761706
    7          5.845500000000         0.000101692672
    8          2.285600000000        -0.000003498127
    9          0.585700000000         0.000000391447
   10       3021.600000000000        -0.000523597732
   11        714.730000000000        -0.004284180259
   12        230.160000000000        -0.020724245131
   13         86.130000000000        -0.061321293748
   14         35.027000000000        -0.098124761615
   15         14.876000000000         0.012088333022
   16          5.845500000000         0.242991336772
   17          2.285600000000         0.204151601502
   18          0.585700000000         0.017048272188
   19       3021.600000000000         0.000752035050
   20        714.730000000000         0.006255302346
   21        230.160000000000         0.029886362455
   22         86.130000000000         0.091129271807
   23         35.027000000000         0.141664707201
   24         14.876000000000        -0.023080171902
   25          5.845500000000        -0.498754530985
   26          2.285600000000        -0.294775674512
   27          0.585700000000         1.231310252765
   28          0.170950000000        -0.304175625381
 P 28
    1       3021.600000000000         0.000050767040
    2        714.730000000000         0.000415476763
    3        230.160000000000         0.001917306854
    4         86.130000000000         0.005411167346
    5         35.027000000000         0.007862326145
    6         14.876000000000         0.004117185709
    7          5.845500000000         0.000317244860
    8          2.285600000000        -0.000010912909
    9          0.585700000000         0.000001221176
   10       3021.600000000000        -0.000359746026
   11        714.730000000000        -0.002943513173
   12        230.160000000000        -0.014238917332
   13         86.130000000000        -0.042131755675
   14         35.027000000000        -0.067418154924
   15         14.876000000000         0.008305478607
   16          5.845500000000         0.166951005211
   17          2.285600000000         0.140265556538
   18          0.585700000000         0.011713282526
   19       3021.600000000000         0.000379963706
   20        714.730000000000         0.003160474852
   21        230.160000000000         0.015100005043
   22         86.130000000000         0.046042821903
   23         35.027000000000         0.071575716060
   24         14.876000000000        -0.011661195391
   25          5.845500000000        -0.251994398595
   26          2.285600000000        -0.148934624559
   27          0.585700000000         0.622116226226
   28          0.170950000000        -1.283058643621
 D 7
    1        186.590000000000         0.008887378337
    2         54.949000000000         0.063571236707
    3         20.191000000000         0.218928804764
    4          8.080600000000         0.409365292340
    5          3.205200000000         0.427812570375
    6          1.177800000000         0.184507005351
    7          0.393000000000        -0.126370696873
 D 7
    1        186.590000000000         0.000798774043
    2         54.949000000000         0.005713614507
    3         20.191000000000         0.019676741552
    4          8.080600000000         0.036792669044
    5          3.205200000000         0.038450661570
    6          1.177800000000         0.016583001322
    7          0.393000000000        -1.015388709249
 end
  // -----------------------------------------------
  // The basis set
  // -----------------------------------------------
  BAS[ATNO] = new BFNGauss[NSH];
  // Basis function   1 L = s
  InitBFNGauss(BAS[ATNO][  0]);
  BAS[ATNO][  0].l  = 0;
  BAS[ATNO][  0].ng = 45;
  BAS[ATNO][  0].a[  0] =    147050.000000000000;     BAS[ATNO][  0].d[  0] =         0.001334585069;
  BAS[ATNO][  0].a[  1] =     22074.000000000000;     BAS[ATNO][  0].d[  1] =         0.010259229018;
  BAS[ATNO][  0].a[  2] =      5023.600000000000;     BAS[ATNO][  0].d[  2] =         0.051333599961;
  BAS[ATNO][  0].a[  3] =      1419.800000000000;     BAS[ATNO][  0].d[  3] =         0.184499277917;
  BAS[ATNO][  0].a[  4] =       459.470000000000;     BAS[ATNO][  0].d[  4] =         0.422839929500;
  BAS[ATNO][  0].a[  5] =       160.840000000000;     BAS[ATNO][  0].d[  5] =         0.425623507237;
  BAS[ATNO][  0].a[  6] =        42.985000000000;     BAS[ATNO][  0].d[  6] =         0.069690741828;
  BAS[ATNO][  0].a[  7] =        18.685000000000;     BAS[ATNO][  0].d[  7] =        -0.023360771818;
  BAS[ATNO][  0].a[  8] =         6.044300000000;     BAS[ATNO][  0].d[  8] =         0.009497362940;
  BAS[ATNO][  0].a[  9] =         2.543200000000;     BAS[ATNO][  0].d[  9] =        -0.004452873133;
  BAS[ATNO][  0].a[ 10] =         0.546630000000;     BAS[ATNO][  0].d[ 10] =         0.001376466422;
  BAS[ATNO][  0].a[ 11] =    147050.000000000000;     BAS[ATNO][  0].d[ 11] =         0.000008976268;
  BAS[ATNO][  0].a[ 12] =     22074.000000000000;     BAS[ATNO][  0].d[ 12] =         0.000068985526;
  BAS[ATNO][  0].a[ 13] =      5023.600000000000;     BAS[ATNO][  0].d[ 13] =         0.000356242384;
  BAS[ATNO][  0].a[ 14] =      1419.800000000000;     BAS[ATNO][  0].d[ 14] =         0.001359807834;
  BAS[ATNO][  0].a[ 15] =       459.470000000000;     BAS[ATNO][  0].d[ 15] =         0.003897165058;
  BAS[ATNO][  0].a[ 16] =       160.840000000000;     BAS[ATNO][  0].d[ 16] =         0.005716615208;
  BAS[ATNO][  0].a[ 17] =        42.985000000000;     BAS[ATNO][  0].d[ 17] =        -0.006777255915;
  BAS[ATNO][  0].a[ 18] =        18.685000000000;     BAS[ATNO][  0].d[ 18] =        -0.015671405252;
  BAS[ATNO][  0].a[ 19] =         6.044300000000;     BAS[ATNO][  0].d[ 19] =        -0.002771268619;
  BAS[ATNO][  0].a[ 20] =         2.543200000000;     BAS[ATNO][  0].d[ 20] =         0.000499761113;
  BAS[ATNO][  0].a[ 21] =         0.546630000000;     BAS[ATNO][  0].d[ 21] =        -0.000121180708;
  BAS[ATNO][  0].a[ 22] =    147050.000000000000;     BAS[ATNO][  0].d[ 22] =         0.000000534618;
  BAS[ATNO][  0].a[ 23] =     22074.000000000000;     BAS[ATNO][  0].d[ 23] =         0.000004111051;
  BAS[ATNO][  0].a[ 24] =      5023.600000000000;     BAS[ATNO][  0].d[ 24] =         0.000021297385;
  BAS[ATNO][  0].a[ 25] =      1419.800000000000;     BAS[ATNO][  0].d[ 25] =         0.000082036995;
  BAS[ATNO][  0].a[ 26] =       459.470000000000;     BAS[ATNO][  0].d[ 26] =         0.000241704511;
  BAS[ATNO][  0].a[ 27] =       160.840000000000;     BAS[ATNO][  0].d[ 27] =         0.000380025491;
  BAS[ATNO][  0].a[ 28] =        42.985000000000;     BAS[ATNO][  0].d[ 28] =        -0.000618220825;
  BAS[ATNO][  0].a[ 29] =        18.685000000000;     BAS[ATNO][  0].d[ 29] =        -0.001997315630;
  BAS[ATNO][  0].a[ 30] =         6.044300000000;     BAS[ATNO][  0].d[ 30] =         0.000943991251;
  BAS[ATNO][  0].a[ 31] =         2.543200000000;     BAS[ATNO][  0].d[ 31] =         0.002857635319;
  BAS[ATNO][  0].a[ 32] =         0.546630000000;     BAS[ATNO][  0].d[ 32] =         0.000262690984;
  BAS[ATNO][  0].a[ 33] =    147050.000000000000;     BAS[ATNO][  0].d[ 33] =         0.000000617248;
  BAS[ATNO][  0].a[ 34] =     22074.000000000000;     BAS[ATNO][  0].d[ 34] =         0.000004745243;
  BAS[ATNO][  0].a[ 35] =      5023.600000000000;     BAS[ATNO][  0].d[ 35] =         0.000024608076;
  BAS[ATNO][  0].a[ 36] =      1419.800000000000;     BAS[ATNO][  0].d[ 36] =         0.000094849740;
  BAS[ATNO][  0].a[ 37] =       459.470000000000;     BAS[ATNO][  0].d[ 37] =         0.000280900517;
  BAS[ATNO][  0].a[ 38] =       160.840000000000;     BAS[ATNO][  0].d[ 38] =         0.000445574414;
  BAS[ATNO][  0].a[ 39] =        42.985000000000;     BAS[ATNO][  0].d[ 39] =        -0.000755700380;
  BAS[ATNO][  0].a[ 40] =        18.685000000000;     BAS[ATNO][  0].d[ 40] =        -0.002630841541;
  BAS[ATNO][  0].a[ 41] =         6.044300000000;     BAS[ATNO][  0].d[ 41] =         0.001641916294;
  BAS[ATNO][  0].a[ 42] =         2.543200000000;     BAS[ATNO][  0].d[ 42] =         0.006889544705;
  BAS[ATNO][  0].a[ 43] =         0.546630000000;     BAS[ATNO][  0].d[ 43] =        -0.006170414029;
  BAS[ATNO][  0].a[ 44] =         0.215330000000;     BAS[ATNO][  0].d[ 44] =         0.001857646406;

  // Basis function   2 L = s
  InitBFNGauss(BAS[ATNO][  1]);
  BAS[ATNO][  1].l  = 0;
  BAS[ATNO][  1].ng = 45;
  BAS[ATNO][  1].a[  0] =    147050.000000000000;     BAS[ATNO][  1].d[  0] =         0.000030006244;
  BAS[ATNO][  1].a[  1] =     22074.000000000000;     BAS[ATNO][  1].d[  1] =         0.000230664151;
  BAS[ATNO][  1].a[  2] =      5023.600000000000;     BAS[ATNO][  1].d[  2] =         0.001154162875;
  BAS[ATNO][  1].a[  3] =      1419.800000000000;     BAS[ATNO][  1].d[  3] =         0.004148203462;
  BAS[ATNO][  1].a[  4] =       459.470000000000;     BAS[ATNO][  1].d[  4] =         0.009506953519;
  BAS[ATNO][  1].a[  5] =       160.840000000000;     BAS[ATNO][  1].d[  5] =         0.009569538300;
  BAS[ATNO][  1].a[  6] =        42.985000000000;     BAS[ATNO][  1].d[  6] =         0.001566897062;
  BAS[ATNO][  1].a[  7] =        18.685000000000;     BAS[ATNO][  1].d[  7] =        -0.000525233679;
  BAS[ATNO][  1].a[  8] =         6.044300000000;     BAS[ATNO][  1].d[  8] =         0.000213534678;
  BAS[ATNO][  1].a[  9] =         2.543200000000;     BAS[ATNO][  1].d[  9] =        -0.000100116510;
  BAS[ATNO][  1].a[ 10] =         0.546630000000;     BAS[ATNO][  1].d[ 10] =         0.000030947887;
  BAS[ATNO][  1].a[ 11] =    147050.000000000000;     BAS[ATNO][  1].d[ 11] =        -0.000422495625;
  BAS[ATNO][  1].a[ 12] =     22074.000000000000;     BAS[ATNO][  1].d[ 12] =        -0.003247015854;
  BAS[ATNO][  1].a[ 13] =      5023.600000000000;     BAS[ATNO][  1].d[ 13] =        -0.016767642977;
  BAS[ATNO][  1].a[ 14] =      1419.800000000000;     BAS[ATNO][  1].d[ 14] =        -0.064003536034;
  BAS[ATNO][  1].a[ 15] =       459.470000000000;     BAS[ATNO][  1].d[ 15] =        -0.183432054176;
  BAS[ATNO][  1].a[ 16] =       160.840000000000;     BAS[ATNO][  1].d[ 16] =        -0.269070068854;
  BAS[ATNO][  1].a[ 17] =        42.985000000000;     BAS[ATNO][  1].d[ 17] =         0.318992384386;
  BAS[ATNO][  1].a[ 18] =        18.685000000000;     BAS[ATNO][  1].d[ 18] =         0.737622865435;
  BAS[ATNO][  1].a[ 19] =         6.044300000000;     BAS[ATNO][  1].d[ 19] =         0.130438277032;
  BAS[ATNO][  1].a[ 20] =         2.543200000000;     BAS[ATNO][  1].d[ 20] =        -0.023522793179;
  BAS[ATNO][  1].a[ 21] =         0.546630000000;     BAS[ATNO][  1].d[ 21] =         0.005703742569;
  BAS[ATNO][  1].a[ 22] =    147050.000000000000;     BAS[ATNO][  1].d[ 22] =        -0.000007335937;
  BAS[ATNO][  1].a[ 23] =     22074.000000000000;     BAS[ATNO][  1].d[ 23] =        -0.000056411164;
  BAS[ATNO][  1].a[ 24] =      5023.600000000000;     BAS[ATNO][  1].d[ 24] =        -0.000292239174;
  BAS[ATNO][  1].a[ 25] =      1419.800000000000;     BAS[ATNO][  1].d[ 25] =        -0.001125698019;
  BAS[ATNO][  1].a[ 26] =       459.470000000000;     BAS[ATNO][  1].d[ 26] =        -0.003316629157;
  BAS[ATNO][  1].a[ 27] =       160.840000000000;     BAS[ATNO][  1].d[ 27] =        -0.005214646675;
  BAS[ATNO][  1].a[ 28] =        42.985000000000;     BAS[ATNO][  1].d[ 28] =         0.008483123499;
  BAS[ATNO][  1].a[ 29] =        18.685000000000;     BAS[ATNO][  1].d[ 29] =         0.027406833403;
  BAS[ATNO][  1].a[ 30] =         6.044300000000;     BAS[ATNO][  1].d[ 30] =        -0.012953291193;
  BAS[ATNO][  1].a[ 31] =         2.543200000000;     BAS[ATNO][  1].d[ 31] =        -0.039211997315;
  BAS[ATNO][  1].a[ 32] =         0.546630000000;     BAS[ATNO][  1].d[ 32] =        -0.003604602065;
  BAS[ATNO][  1].a[ 33] =    147050.000000000000;     BAS[ATNO][  1].d[ 33] =        -0.000006301021;
  BAS[ATNO][  1].a[ 34] =     22074.000000000000;     BAS[ATNO][  1].d[ 34] =        -0.000048440614;
  BAS[ATNO][  1].a[ 35] =      5023.600000000000;     BAS[ATNO][  1].d[ 35] =        -0.000251205334;
  BAS[ATNO][  1].a[ 36] =      1419.800000000000;     BAS[ATNO][  1].d[ 36] =        -0.000968249644;
  BAS[ATNO][  1].a[ 37] =       459.470000000000;     BAS[ATNO][  1].d[ 37] =        -0.002867502069;
  BAS[ATNO][  1].a[ 38] =       160.840000000000;     BAS[ATNO][  1].d[ 38] =        -0.004548534014;
  BAS[ATNO][  1].a[ 39] =        42.985000000000;     BAS[ATNO][  1].d[ 39] =         0.007714376704;
  BAS[ATNO][  1].a[ 40] =        18.685000000000;     BAS[ATNO][  1].d[ 40] =         0.026856282256;
  BAS[ATNO][  1].a[ 41] =         6.044300000000;     BAS[ATNO][  1].d[ 41] =        -0.016761088324;
  BAS[ATNO][  1].a[ 42] =         2.543200000000;     BAS[ATNO][  1].d[ 42] =        -0.070330179270;
  BAS[ATNO][  1].a[ 43] =         0.546630000000;     BAS[ATNO][  1].d[ 43] =         0.062989115158;
  BAS[ATNO][  1].a[ 44] =         0.215330000000;     BAS[ATNO][  1].d[ 44] =        -0.027774259905;

  // Basis function   3 L = s
  InitBFNGauss(BAS[ATNO][  2]);
  BAS[ATNO][  2].l  = 0;
  BAS[ATNO][  2].ng = 45;
  BAS[ATNO][  2].a[  0] =    147050.000000000000;     BAS[ATNO][  2].d[  0] =        -0.000020748820;
  BAS[ATNO][  2].a[  1] =     22074.000000000000;     BAS[ATNO][  2].d[  1] =        -0.000159500434;
  BAS[ATNO][  2].a[  2] =      5023.600000000000;     BAS[ATNO][  2].d[  2] =        -0.000798084483;
  BAS[ATNO][  2].a[  3] =      1419.800000000000;     BAS[ATNO][  2].d[  3] =        -0.002868413884;
  BAS[ATNO][  2].a[  4] =       459.470000000000;     BAS[ATNO][  2].d[  4] =        -0.006573900659;
  BAS[ATNO][  2].a[  5] =       160.840000000000;     BAS[ATNO][  2].d[  5] =        -0.006617176997;
  BAS[ATNO][  2].a[  6] =        42.985000000000;     BAS[ATNO][  2].d[  6] =        -0.001083483327;
  BAS[ATNO][  2].a[  7] =        18.685000000000;     BAS[ATNO][  2].d[  7] =         0.000363190377;
  BAS[ATNO][  2].a[  8] =         6.044300000000;     BAS[ATNO][  2].d[  8] =        -0.000147655687;
  BAS[ATNO][  2].a[  9] =         2.543200000000;     BAS[ATNO][  2].d[  9] =         0.000069228906;
  BAS[ATNO][  2].a[ 10] =         0.546630000000;     BAS[ATNO][  2].d[ 10] =        -0.000021399950;
  BAS[ATNO][  2].a[ 11] =    147050.000000000000;     BAS[ATNO][  2].d[ 11] =        -0.000008432126;
  BAS[ATNO][  2].a[ 12] =     22074.000000000000;     BAS[ATNO][  2].d[ 12] =        -0.000064803622;
  BAS[ATNO][  2].a[ 13] =      5023.600000000000;     BAS[ATNO][  2].d[ 13] =        -0.000334646963;
  BAS[ATNO][  2].a[ 14] =      1419.800000000000;     BAS[ATNO][  2].d[ 14] =        -0.001277376252;
  BAS[ATNO][  2].a[ 15] =       459.470000000000;     BAS[ATNO][  2].d[ 15] =        -0.003660918823;
  BAS[ATNO][  2].a[ 16] =       160.840000000000;     BAS[ATNO][  2].d[ 16] =        -0.005370073864;
  BAS[ATNO][  2].a[ 17] =        42.985000000000;     BAS[ATNO][  2].d[ 17] =         0.006366418507;
  BAS[ATNO][  2].a[ 18] =        18.685000000000;     BAS[ATNO][  2].d[ 18] =         0.014721404309;
  BAS[ATNO][  2].a[ 19] =         6.044300000000;     BAS[ATNO][  2].d[ 19] =         0.002603274252;
  BAS[ATNO][  2].a[ 20] =         2.543200000000;     BAS[ATNO][  2].d[ 20] =        -0.000469465583;
  BAS[ATNO][  2].a[ 21] =         0.546630000000;     BAS[ATNO][  2].d[ 21] =         0.000113834731;
  BAS[ATNO][  2].a[ 22] =    147050.000000000000;     BAS[ATNO][  2].d[ 22] =         0.000120692855;
  BAS[ATNO][  2].a[ 23] =     22074.000000000000;     BAS[ATNO][  2].d[ 23] =         0.000928091956;
  BAS[ATNO][  2].a[ 24] =      5023.600000000000;     BAS[ATNO][  2].d[ 24] =         0.004807999143;
  BAS[ATNO][  2].a[ 25] =      1419.800000000000;     BAS[ATNO][  2].d[ 25] =         0.018520292964;
  BAS[ATNO][  2].a[ 26] =       459.470000000000;     BAS[ATNO][  2].d[ 26] =         0.054566093754;
  BAS[ATNO][  2].a[ 27] =       160.840000000000;     BAS[ATNO][  2].d[ 27] =         0.085792799224;
  BAS[ATNO][  2].a[ 28] =        42.985000000000;     BAS[ATNO][  2].d[ 28] =        -0.139566677576;
  BAS[ATNO][  2].a[ 29] =        18.685000000000;     BAS[ATNO][  2].d[ 29] =        -0.450904750045;
  BAS[ATNO][  2].a[ 30] =         6.044300000000;     BAS[ATNO][  2].d[ 30] =         0.213111104143;
  BAS[ATNO][  2].a[ 31] =         2.543200000000;     BAS[ATNO][  2].d[ 31] =         0.645126548838;
  BAS[ATNO][  2].a[ 32] =         0.546630000000;     BAS[ATNO][  2].d[ 32] =         0.059303903128;
  BAS[ATNO][  2].a[ 33] =    147050.000000000000;     BAS[ATNO][  2].d[ 33] =         0.000042907403;
  BAS[ATNO][  2].a[ 34] =     22074.000000000000;     BAS[ATNO][  2].d[ 34] =         0.000329860954;
  BAS[ATNO][  2].a[ 35] =      5023.600000000000;     BAS[ATNO][  2].d[ 35] =         0.001710606534;
  BAS[ATNO][  2].a[ 36] =      1419.800000000000;     BAS[ATNO][  2].d[ 36] =         0.006593387724;
  BAS[ATNO][  2].a[ 37] =       459.470000000000;     BAS[ATNO][  2].d[ 37] =         0.019526527128;
  BAS[ATNO][  2].a[ 38] =       160.840000000000;     BAS[ATNO][  2].d[ 38] =         0.030973673488;
  BAS[ATNO][  2].a[ 39] =        42.985000000000;     BAS[ATNO][  2].d[ 39] =        -0.052531779348;
  BAS[ATNO][  2].a[ 40] =        18.685000000000;     BAS[ATNO][  2].d[ 40] =        -0.182880399515;
  BAS[ATNO][  2].a[ 41] =         6.044300000000;     BAS[ATNO][  2].d[ 41] =         0.114136219589;
  BAS[ATNO][  2].a[ 42] =         2.543200000000;     BAS[ATNO][  2].d[ 42] =         0.478920021775;
  BAS[ATNO][  2].a[ 43] =         0.546630000000;     BAS[ATNO][  2].d[ 43] =        -0.428930349902;
  BAS[ATNO][  2].a[ 44] =         0.215330000000;     BAS[ATNO][  2].d[ 44] =         0.151432179642;

  // Basis function   4 L = s
  InitBFNGauss(BAS[ATNO][  3]);
  BAS[ATNO][  3].l  = 0;
  BAS[ATNO][  3].ng = 45;
  BAS[ATNO][  3].a[  0] =    147050.000000000000;     BAS[ATNO][  3].d[  0] =        -0.000055403202;
  BAS[ATNO][  3].a[  1] =     22074.000000000000;     BAS[ATNO][  3].d[  1] =        -0.000425895771;
  BAS[ATNO][  3].a[  2] =      5023.600000000000;     BAS[ATNO][  3].d[  2] =        -0.002131033735;
  BAS[ATNO][  3].a[  3] =      1419.800000000000;     BAS[ATNO][  3].d[  3] =        -0.007659197594;
  BAS[ATNO][  3].a[  4] =       459.470000000000;     BAS[ATNO][  3].d[  4] =        -0.017553535206;
  BAS[ATNO][  3].a[  5] =       160.840000000000;     BAS[ATNO][  3].d[  5] =        -0.017669091062;
  BAS[ATNO][  3].a[  6] =        42.985000000000;     BAS[ATNO][  3].d[  6] =        -0.002893101632;
  BAS[ATNO][  3].a[  7] =        18.685000000000;     BAS[ATNO][  3].d[  7] =         0.000969785732;
  BAS[ATNO][  3].a[  8] =         6.044300000000;     BAS[ATNO][  3].d[  8] =        -0.000394268098;
  BAS[ATNO][  3].a[  9] =         2.543200000000;     BAS[ATNO][  3].d[  9] =         0.000184854031;
  BAS[ATNO][  3].a[ 10] =         0.546630000000;     BAS[ATNO][  3].d[ 10] =        -0.000057141840;
  BAS[ATNO][  3].a[ 11] =    147050.000000000000;     BAS[ATNO][  3].d[ 11] =         0.000108800061;
  BAS[ATNO][  3].a[ 12] =     22074.000000000000;     BAS[ATNO][  3].d[ 12] =         0.000836163739;
  BAS[ATNO][  3].a[ 13] =      5023.600000000000;     BAS[ATNO][  3].d[ 13] =         0.004317963225;
  BAS[ATNO][  3].a[ 14] =      1419.800000000000;     BAS[ATNO][  3].d[ 14] =         0.016482037172;
  BAS[ATNO][  3].a[ 15] =       459.470000000000;     BAS[ATNO][  3].d[ 15] =         0.047236982874;
  BAS[ATNO][  3].a[ 16] =       160.840000000000;     BAS[ATNO][  3].d[ 16] =         0.069290279124;
  BAS[ATNO][  3].a[ 17] =        42.985000000000;     BAS[ATNO][  3].d[ 17] =        -0.082146154148;
  BAS[ATNO][  3].a[ 18] =        18.685000000000;     BAS[ATNO][  3].d[ 18] =        -0.189950872099;
  BAS[ATNO][  3].a[ 19] =         6.044300000000;     BAS[ATNO][  3].d[ 19] =        -0.033590152419;
  BAS[ATNO][  3].a[ 20] =         2.543200000000;     BAS[ATNO][  3].d[ 20] =         0.006057533311;
  BAS[ATNO][  3].a[ 21] =         0.546630000000;     BAS[ATNO][  3].d[ 21] =        -0.001468814114;
  BAS[ATNO][  3].a[ 22] =    147050.000000000000;     BAS[ATNO][  3].d[ 22] =        -0.000213722721;
  BAS[ATNO][  3].a[ 23] =     22074.000000000000;     BAS[ATNO][  3].d[ 23] =        -0.001643463796;
  BAS[ATNO][  3].a[ 24] =      5023.600000000000;     BAS[ATNO][  3].d[ 24] =        -0.008513997426;
  BAS[ATNO][  3].a[ 25] =      1419.800000000000;     BAS[ATNO][  3].d[ 25] =        -0.032795706059;
  BAS[ATNO][  3].a[ 26] =       459.470000000000;     BAS[ATNO][  3].d[ 26] =        -0.096625554196;
  BAS[ATNO][  3].a[ 27] =       160.840000000000;     BAS[ATNO][  3].d[ 27] =        -0.151921755814;
  BAS[ATNO][  3].a[ 28] =        42.985000000000;     BAS[ATNO][  3].d[ 28] =         0.247144456204;
  BAS[ATNO][  3].a[ 29] =        18.685000000000;     BAS[ATNO][  3].d[ 29] =         0.798461432095;
  BAS[ATNO][  3].a[ 30] =         6.044300000000;     BAS[ATNO][  3].d[ 30] =        -0.377376812714;
  BAS[ATNO][  3].a[ 31] =         2.543200000000;     BAS[ATNO][  3].d[ 31] =        -1.142389092189;
  BAS[ATNO][  3].a[ 32] =         0.546630000000;     BAS[ATNO][  3].d[ 32] =        -0.105015259689;
  BAS[ATNO][  3].a[ 33] =    147050.000000000000;     BAS[ATNO][  3].d[ 33] =         0.000182808060;
  BAS[ATNO][  3].a[ 34] =     22074.000000000000;     BAS[ATNO][  3].d[ 34] =         0.001405380830;
  BAS[ATNO][  3].a[ 35] =      5023.600000000000;     BAS[ATNO][  3].d[ 35] =         0.007288081843;
  BAS[ATNO][  3].a[ 36] =      1419.800000000000;     BAS[ATNO][  3].d[ 36] =         0.028091293002;
  BAS[ATNO][  3].a[ 37] =       459.470000000000;     BAS[ATNO][  3].d[ 37] =         0.083193256311;
  BAS[ATNO][  3].a[ 38] =       160.840000000000;     BAS[ATNO][  3].d[ 38] =         0.131964109159;
  BAS[ATNO][  3].a[ 39] =        42.985000000000;     BAS[ATNO][  3].d[ 39] =        -0.223812957378;
  BAS[ATNO][  3].a[ 40] =        18.685000000000;     BAS[ATNO][  3].d[ 40] =        -0.779166507770;
  BAS[ATNO][  3].a[ 41] =         6.044300000000;     BAS[ATNO][  3].d[ 41] =         0.486280212989;
  BAS[ATNO][  3].a[ 42] =         2.543200000000;     BAS[ATNO][  3].d[ 42] =         2.040450709082;
  BAS[ATNO][  3].a[ 43] =         0.546630000000;     BAS[ATNO][  3].d[ 43] =        -1.827468464068;
  BAS[ATNO][  3].a[ 44] =         0.215330000000;     BAS[ATNO][  3].d[ 44] =         0.606258644273;

  // Basis function   5 L = s
  InitBFNGauss(BAS[ATNO][  4]);
  BAS[ATNO][  4].l  = 0;
  BAS[ATNO][  4].ng = 45;
  BAS[ATNO][  4].a[  0] =    147050.000000000000;     BAS[ATNO][  4].d[  0] =        -0.000082705397;
  BAS[ATNO][  4].a[  1] =     22074.000000000000;     BAS[ATNO][  4].d[  1] =        -0.000635773343;
  BAS[ATNO][  4].a[  2] =      5023.600000000000;     BAS[ATNO][  4].d[  2] =        -0.003181187824;
  BAS[ATNO][  4].a[  3] =      1419.800000000000;     BAS[ATNO][  4].d[  3] =        -0.011433580676;
  BAS[ATNO][  4].a[  4] =       459.470000000000;     BAS[ATNO][  4].d[  4] =        -0.026203758092;
  BAS[ATNO][  4].a[  5] =       160.840000000000;     BAS[ATNO][  4].d[  5] =        -0.026376258825;
  BAS[ATNO][  4].a[  6] =        42.985000000000;     BAS[ATNO][  4].d[  6] =        -0.004318795868;
  BAS[ATNO][  4].a[  7] =        18.685000000000;     BAS[ATNO][  4].d[  7] =         0.001447687342;
  BAS[ATNO][  4].a[  8] =         6.044300000000;     BAS[ATNO][  4].d[  8] =        -0.000588559839;
  BAS[ATNO][  4].a[  9] =         2.543200000000;     BAS[ATNO][  4].d[  9] =         0.000275948420;
  BAS[ATNO][  4].a[ 10] =         0.546630000000;     BAS[ATNO][  4].d[ 10] =        -0.000085300821;
  BAS[ATNO][  4].a[ 11] =    147050.000000000000;     BAS[ATNO][  4].d[ 11] =         0.000173427448;
  BAS[ATNO][  4].a[ 12] =     22074.000000000000;     BAS[ATNO][  4].d[ 12] =         0.001332846167;
  BAS[ATNO][  4].a[ 13] =      5023.600000000000;     BAS[ATNO][  4].d[ 13] =         0.006882839408;
  BAS[ATNO][  4].a[ 14] =      1419.800000000000;     BAS[ATNO][  4].d[ 14] =         0.026272390260;
  BAS[ATNO][  4].a[ 15] =       459.470000000000;     BAS[ATNO][  4].d[ 15] =         0.075295816640;
  BAS[ATNO][  4].a[ 16] =       160.840000000000;     BAS[ATNO][  4].d[ 16] =         0.110448801649;
  BAS[ATNO][  4].a[ 17] =        42.985000000000;     BAS[ATNO][  4].d[ 17] =        -0.130941084382;
  BAS[ATNO][  4].a[ 18] =        18.685000000000;     BAS[ATNO][  4].d[ 18] =        -0.302781955285;
  BAS[ATNO][  4].a[ 19] =         6.044300000000;     BAS[ATNO][  4].d[ 19] =        -0.053542749845;
  BAS[ATNO][  4].a[ 20] =         2.543200000000;     BAS[ATNO][  4].d[ 20] =         0.009655716554;
  BAS[ATNO][  4].a[ 21] =         0.546630000000;     BAS[ATNO][  4].d[ 21] =        -0.002341291747;
  BAS[ATNO][  4].a[ 22] =    147050.000000000000;     BAS[ATNO][  4].d[ 22] =        -0.000276532153;
  BAS[ATNO][  4].a[ 23] =     22074.000000000000;     BAS[ATNO][  4].d[ 23] =        -0.002126449543;
  BAS[ATNO][  4].a[ 24] =      5023.600000000000;     BAS[ATNO][  4].d[ 24] =        -0.011016114854;
  BAS[ATNO][  4].a[ 25] =      1419.800000000000;     BAS[ATNO][  4].d[ 25] =        -0.042433800078;
  BAS[ATNO][  4].a[ 26] =       459.470000000000;     BAS[ATNO][  4].d[ 26] =        -0.125022142893;
  BAS[ATNO][  4].a[ 27] =       160.840000000000;     BAS[ATNO][  4].d[ 27] =        -0.196568947232;
  BAS[ATNO][  4].a[ 28] =        42.985000000000;     BAS[ATNO][  4].d[ 28] =         0.319775961711;
  BAS[ATNO][  4].a[ 29] =        18.685000000000;     BAS[ATNO][  4].d[ 29] =         1.033115515754;
  BAS[ATNO][  4].a[ 30] =         6.044300000000;     BAS[ATNO][  4].d[ 30] =        -0.488281368178;
  BAS[ATNO][  4].a[ 31] =         2.543200000000;     BAS[ATNO][  4].d[ 31] =        -1.478117600586;
  BAS[ATNO][  4].a[ 32] =         0.546630000000;     BAS[ATNO][  4].d[ 32] =        -0.135877438552;
  BAS[ATNO][  4].a[ 33] =    147050.000000000000;     BAS[ATNO][  4].d[ 33] =         0.000175389837;
  BAS[ATNO][  4].a[ 34] =     22074.000000000000;     BAS[ATNO][  4].d[ 34] =         0.001348351462;
  BAS[ATNO][  4].a[ 35] =      5023.600000000000;     BAS[ATNO][  4].d[ 35] =         0.006992336594;
  BAS[ATNO][  4].a[ 36] =      1419.800000000000;     BAS[ATNO][  4].d[ 36] =         0.026951368039;
  BAS[ATNO][  4].a[ 37] =       459.470000000000;     BAS[ATNO][  4].d[ 37] =         0.079817332334;
  BAS[ATNO][  4].a[ 38] =       160.840000000000;     BAS[ATNO][  4].d[ 38] =         0.126609098188;
  BAS[ATNO][  4].a[ 39] =        42.985000000000;     BAS[ATNO][  4].d[ 39] =        -0.214730784583;
  BAS[ATNO][  4].a[ 40] =        18.685000000000;     BAS[ATNO][  4].d[ 40] =        -0.747548477506;
  BAS[ATNO][  4].a[ 41] =         6.044300000000;     BAS[ATNO][  4].d[ 41] =         0.466547303093;
  BAS[ATNO][  4].a[ 42] =         2.543200000000;     BAS[ATNO][  4].d[ 42] =         1.957650650778;
  BAS[ATNO][  4].a[ 43] =         0.546630000000;     BAS[ATNO][  4].d[ 43] =        -1.753311075850;
  BAS[ATNO][  4].a[ 44] =         0.215330000000;     BAS[ATNO][  4].d[ 44] =         2.100682790155;

  // Basis function   6 L = p
  InitBFNGauss(BAS[ATNO][  5]);
  BAS[ATNO][  5].l  = 1;
  BAS[ATNO][  5].ng = 28;
  BAS[ATNO][  5].a[  0] =      3021.600000000000;     BAS[ATNO][  5].d[  0] =         0.002988810373;
  BAS[ATNO][  5].a[  1] =       714.730000000000;     BAS[ATNO][  5].d[  1] =         0.024460383360;
  BAS[ATNO][  5].a[  2] =       230.160000000000;     BAS[ATNO][  5].d[  2] =         0.112877698248;
  BAS[ATNO][  5].a[  3] =        86.130000000000;     BAS[ATNO][  5].d[  3] =         0.318571914388;
  BAS[ATNO][  5].a[  4] =        35.027000000000;     BAS[ATNO][  5].d[  4] =         0.462879103783;
  BAS[ATNO][  5].a[  5] =        14.876000000000;     BAS[ATNO][  5].d[  5] =         0.242391271487;
  BAS[ATNO][  5].a[  6] =         5.845500000000;     BAS[ATNO][  5].d[  6] =         0.018677171838;
  BAS[ATNO][  5].a[  7] =         2.285600000000;     BAS[ATNO][  5].d[  7] =        -0.000642476196;
  BAS[ATNO][  5].a[  8] =         0.585700000000;     BAS[ATNO][  5].d[  8] =         0.000071894382;
  BAS[ATNO][  5].a[  9] =      3021.600000000000;     BAS[ATNO][  5].d[  9] =         0.000089595219;
  BAS[ATNO][  5].a[ 10] =       714.730000000000;     BAS[ATNO][  5].d[ 10] =         0.000733085810;
  BAS[ATNO][  5].a[ 11] =       230.160000000000;     BAS[ATNO][  5].d[ 11] =         0.003546221005;
  BAS[ATNO][  5].a[ 12] =        86.130000000000;     BAS[ATNO][  5].d[ 12] =         0.010492968916;
  BAS[ATNO][  5].a[ 13] =        35.027000000000;     BAS[ATNO][  5].d[ 13] =         0.016790579757;
  BAS[ATNO][  5].a[ 14] =        14.876000000000;     BAS[ATNO][  5].d[ 14] =        -0.002068490322;
  BAS[ATNO][  5].a[ 15] =         5.845500000000;     BAS[ATNO][  5].d[ 15] =        -0.041579366444;
  BAS[ATNO][  5].a[ 16] =         2.285600000000;     BAS[ATNO][  5].d[ 16] =        -0.034933320511;
  BAS[ATNO][  5].a[ 17] =         0.585700000000;     BAS[ATNO][  5].d[ 17] =        -0.002917208350;
  BAS[ATNO][  5].a[ 18] =      3021.600000000000;     BAS[ATNO][  5].d[ 18] =         0.000022856611;
  BAS[ATNO][  5].a[ 19] =       714.730000000000;     BAS[ATNO][  5].d[ 19] =         0.000190117483;
  BAS[ATNO][  5].a[ 20] =       230.160000000000;     BAS[ATNO][  5].d[ 20] =         0.000908336592;
  BAS[ATNO][  5].a[ 21] =        86.130000000000;     BAS[ATNO][  5].d[ 21] =         0.002769693111;
  BAS[ATNO][  5].a[ 22] =        35.027000000000;     BAS[ATNO][  5].d[ 22] =         0.004305617238;
  BAS[ATNO][  5].a[ 23] =        14.876000000000;     BAS[ATNO][  5].d[ 23] =        -0.000701475957;
  BAS[ATNO][  5].a[ 24] =         5.845500000000;     BAS[ATNO][  5].d[ 24] =        -0.015158652769;
  BAS[ATNO][  5].a[ 25] =         2.285600000000;     BAS[ATNO][  5].d[ 25] =        -0.008959120804;
  BAS[ATNO][  5].a[ 26] =         0.585700000000;     BAS[ATNO][  5].d[ 26] =         0.037423228088;
  BAS[ATNO][  5].a[ 27] =         0.170950000000;     BAS[ATNO][  5].d[ 27] =        -0.013740315217;

  // Basis function   7 L = p
  InitBFNGauss(BAS[ATNO][  6]);
  BAS[ATNO][  6].l  = 1;
  BAS[ATNO][  6].ng = 28;
  BAS[ATNO][  6].a[  0] =      3021.600000000000;     BAS[ATNO][  6].d[  0] =         0.000240944892;
  BAS[ATNO][  6].a[  1] =       714.730000000000;     BAS[ATNO][  6].d[  1] =         0.001971889716;
  BAS[ATNO][  6].a[  2] =       230.160000000000;     BAS[ATNO][  6].d[  2] =         0.009099709073;
  BAS[ATNO][  6].a[  3] =        86.130000000000;     BAS[ATNO][  6].d[  3] =         0.025681882114;
  BAS[ATNO][  6].a[  4] =        35.027000000000;     BAS[ATNO][  6].d[  4] =         0.037315300061;
  BAS[ATNO][  6].a[  5] =        14.876000000000;     BAS[ATNO][  6].d[  5] =         0.019540530030;
  BAS[ATNO][  6].a[  6] =         5.845500000000;     BAS[ATNO][  6].d[  6] =         0.001505672357;
  BAS[ATNO][  6].a[  7] =         2.285600000000;     BAS[ATNO][  6].d[  7] =        -0.000051793636;
  BAS[ATNO][  6].a[  8] =         0.585700000000;     BAS[ATNO][  6].d[  8] =         0.000005795812;
  BAS[ATNO][  6].a[  9] =      3021.600000000000;     BAS[ATNO][  6].d[  9] =        -0.001136891428;
  BAS[ATNO][  6].a[ 10] =       714.730000000000;     BAS[ATNO][  6].d[ 10] =        -0.009302270634;
  BAS[ATNO][  6].a[ 11] =       230.160000000000;     BAS[ATNO][  6].d[ 11] =        -0.044998698761;
  BAS[ATNO][  6].a[ 12] =        86.130000000000;     BAS[ATNO][  6].d[ 12] =        -0.133147355072;
  BAS[ATNO][  6].a[ 13] =        35.027000000000;     BAS[ATNO][  6].d[ 13] =        -0.213058982903;
  BAS[ATNO][  6].a[ 14] =        14.876000000000;     BAS[ATNO][  6].d[ 14] =         0.026247482248;
  BAS[ATNO][  6].a[ 15] =         5.845500000000;     BAS[ATNO][  6].d[ 15] =         0.527608793280;
  BAS[ATNO][  6].a[ 16] =         2.285600000000;     BAS[ATNO][  6].d[ 16] =         0.443275803762;
  BAS[ATNO][  6].a[ 17] =         0.585700000000;     BAS[ATNO][  6].d[ 17] =         0.037017032937;
  BAS[ATNO][  6].a[ 18] =      3021.600000000000;     BAS[ATNO][  6].d[ 18] =        -0.000166731247;
  BAS[ATNO][  6].a[ 19] =       714.730000000000;     BAS[ATNO][  6].d[ 19] =        -0.001386842755;
  BAS[ATNO][  6].a[ 20] =       230.160000000000;     BAS[ATNO][  6].d[ 20] =        -0.006626008297;
  BAS[ATNO][  6].a[ 21] =        86.130000000000;     BAS[ATNO][  6].d[ 21] =        -0.020203974705;
  BAS[ATNO][  6].a[ 22] =        35.027000000000;     BAS[ATNO][  6].d[ 22] =        -0.031408021859;
  BAS[ATNO][  6].a[ 23] =        14.876000000000;     BAS[ATNO][  6].d[ 23] =         0.005117029908;
  BAS[ATNO][  6].a[ 24] =         5.845500000000;     BAS[ATNO][  6].d[ 24] =         0.110577246240;
  BAS[ATNO][  6].a[ 25] =         2.285600000000;     BAS[ATNO][  6].d[ 25] =         0.065353756850;
  BAS[ATNO][  6].a[ 26] =         0.585700000000;     BAS[ATNO][  6].d[ 26] =        -0.272989794696;
  BAS[ATNO][  6].a[ 27] =         0.170950000000;     BAS[ATNO][  6].d[ 27] =         0.084843219612;

  // Basis function   8 L = p
  InitBFNGauss(BAS[ATNO][  7]);
  BAS[ATNO][  7].l  = 1;
  BAS[ATNO][  7].ng = 28;
  BAS[ATNO][  7].a[  0] =      3021.600000000000;     BAS[ATNO][  7].d[  0] =         0.000016273348;
  BAS[ATNO][  7].a[  1] =       714.730000000000;     BAS[ATNO][  7].d[  1] =         0.000133180857;
  BAS[ATNO][  7].a[  2] =       230.160000000000;     BAS[ATNO][  7].d[  2] =         0.000614591700;
  BAS[ATNO][  7].a[  3] =        86.130000000000;     BAS[ATNO][  7].d[  3] =         0.001734546837;
  BAS[ATNO][  7].a[  4] =        35.027000000000;     BAS[ATNO][  7].d[  4] =         0.002520264496;
  BAS[ATNO][  7].a[  5] =        14.876000000000;     BAS[ATNO][  7].d[  5] =         0.001319761706;
  BAS[ATNO][  7].a[  6] =         5.845500000000;     BAS[ATNO][  7].d[  6] =         0.000101692672;
  BAS[ATNO][  7].a[  7] =         2.285600000000;     BAS[ATNO][  7].d[  7] =        -0.000003498127;
  BAS[ATNO][  7].a[  8] =         0.585700000000;     BAS[ATNO][  7].d[  8] =         0.000000391447;
  BAS[ATNO][  7].a[  9] =      3021.600000000000;     BAS[ATNO][  7].d[  9] =        -0.000523597732;
  BAS[ATNO][  7].a[ 10] =       714.730000000000;     BAS[ATNO][  7].d[ 10] =        -0.004284180259;
  BAS[ATNO][  7].a[ 11] =       230.160000000000;     BAS[ATNO][  7].d[ 11] =        -0.020724245131;
  BAS[ATNO][  7].a[ 12] =        86.130000000000;     BAS[ATNO][  7].d[ 12] =        -0.061321293748;
  BAS[ATNO][  7].a[ 13] =        35.027000000000;     BAS[ATNO][  7].d[ 13] =        -0.098124761615;
  BAS[ATNO][  7].a[ 14] =        14.876000000000;     BAS[ATNO][  7].d[ 14] =         0.012088333022;
  BAS[ATNO][  7].a[ 15] =         5.845500000000;     BAS[ATNO][  7].d[ 15] =         0.242991336772;
  BAS[ATNO][  7].a[ 16] =         2.285600000000;     BAS[ATNO][  7].d[ 16] =         0.204151601502;
  BAS[ATNO][  7].a[ 17] =         0.585700000000;     BAS[ATNO][  7].d[ 17] =         0.017048272188;
  BAS[ATNO][  7].a[ 18] =      3021.600000000000;     BAS[ATNO][  7].d[ 18] =         0.000752035050;
  BAS[ATNO][  7].a[ 19] =       714.730000000000;     BAS[ATNO][  7].d[ 19] =         0.006255302346;
  BAS[ATNO][  7].a[ 20] =       230.160000000000;     BAS[ATNO][  7].d[ 20] =         0.029886362455;
  BAS[ATNO][  7].a[ 21] =        86.130000000000;     BAS[ATNO][  7].d[ 21] =         0.091129271807;
  BAS[ATNO][  7].a[ 22] =        35.027000000000;     BAS[ATNO][  7].d[ 22] =         0.141664707201;
  BAS[ATNO][  7].a[ 23] =        14.876000000000;     BAS[ATNO][  7].d[ 23] =        -0.023080171902;
  BAS[ATNO][  7].a[ 24] =         5.845500000000;     BAS[ATNO][  7].d[ 24] =        -0.498754530985;
  BAS[ATNO][  7].a[ 25] =         2.285600000000;     BAS[ATNO][  7].d[ 25] =        -0.294775674512;
  BAS[ATNO][  7].a[ 26] =         0.585700000000;     BAS[ATNO][  7].d[ 26] =         1.231310252765;
  BAS[ATNO][  7].a[ 27] =         0.170950000000;     BAS[ATNO][  7].d[ 27] =        -0.304175625381;

  // Basis function   9 L = p
  InitBFNGauss(BAS[ATNO][  8]);
  BAS[ATNO][  8].l  = 1;
  BAS[ATNO][  8].ng = 28;
  BAS[ATNO][  8].a[  0] =      3021.600000000000;     BAS[ATNO][  8].d[  0] =        -0.000050767040;
  BAS[ATNO][  8].a[  1] =       714.730000000000;     BAS[ATNO][  8].d[  1] =        -0.000415476763;
  BAS[ATNO][  8].a[  2] =       230.160000000000;     BAS[ATNO][  8].d[  2] =        -0.001917306854;
  BAS[ATNO][  8].a[  3] =        86.130000000000;     BAS[ATNO][  8].d[  3] =        -0.005411167346;
  BAS[ATNO][  8].a[  4] =        35.027000000000;     BAS[ATNO][  8].d[  4] =        -0.007862326145;
  BAS[ATNO][  8].a[  5] =        14.876000000000;     BAS[ATNO][  8].d[  5] =        -0.004117185709;
  BAS[ATNO][  8].a[  6] =         5.845500000000;     BAS[ATNO][  8].d[  6] =        -0.000317244860;
  BAS[ATNO][  8].a[  7] =         2.285600000000;     BAS[ATNO][  8].d[  7] =         0.000010912909;
  BAS[ATNO][  8].a[  8] =         0.585700000000;     BAS[ATNO][  8].d[  8] =        -0.000001221176;
  BAS[ATNO][  8].a[  9] =      3021.600000000000;     BAS[ATNO][  8].d[  9] =         0.000359746026;
  BAS[ATNO][  8].a[ 10] =       714.730000000000;     BAS[ATNO][  8].d[ 10] =         0.002943513173;
  BAS[ATNO][  8].a[ 11] =       230.160000000000;     BAS[ATNO][  8].d[ 11] =         0.014238917332;
  BAS[ATNO][  8].a[ 12] =        86.130000000000;     BAS[ATNO][  8].d[ 12] =         0.042131755675;
  BAS[ATNO][  8].a[ 13] =        35.027000000000;     BAS[ATNO][  8].d[ 13] =         0.067418154924;
  BAS[ATNO][  8].a[ 14] =        14.876000000000;     BAS[ATNO][  8].d[ 14] =        -0.008305478607;
  BAS[ATNO][  8].a[ 15] =         5.845500000000;     BAS[ATNO][  8].d[ 15] =        -0.166951005211;
  BAS[ATNO][  8].a[ 16] =         2.285600000000;     BAS[ATNO][  8].d[ 16] =        -0.140265556538;
  BAS[ATNO][  8].a[ 17] =         0.585700000000;     BAS[ATNO][  8].d[ 17] =        -0.011713282526;
  BAS[ATNO][  8].a[ 18] =      3021.600000000000;     BAS[ATNO][  8].d[ 18] =        -0.000379963706;
  BAS[ATNO][  8].a[ 19] =       714.730000000000;     BAS[ATNO][  8].d[ 19] =        -0.003160474852;
  BAS[ATNO][  8].a[ 20] =       230.160000000000;     BAS[ATNO][  8].d[ 20] =        -0.015100005043;
  BAS[ATNO][  8].a[ 21] =        86.130000000000;     BAS[ATNO][  8].d[ 21] =        -0.046042821903;
  BAS[ATNO][  8].a[ 22] =        35.027000000000;     BAS[ATNO][  8].d[ 22] =        -0.071575716060;
  BAS[ATNO][  8].a[ 23] =        14.876000000000;     BAS[ATNO][  8].d[ 23] =         0.011661195391;
  BAS[ATNO][  8].a[ 24] =         5.845500000000;     BAS[ATNO][  8].d[ 24] =         0.251994398595;
  BAS[ATNO][  8].a[ 25] =         2.285600000000;     BAS[ATNO][  8].d[ 25] =         0.148934624559;
  BAS[ATNO][  8].a[ 26] =         0.585700000000;     BAS[ATNO][  8].d[ 26] =        -0.622116226226;
  BAS[ATNO][  8].a[ 27] =         0.170950000000;     BAS[ATNO][  8].d[ 27] =         1.283058643621;

  // Basis function  10 L = d
  InitBFNGauss(BAS[ATNO][  9]);
  BAS[ATNO][  9].l  = 2;
  BAS[ATNO][  9].ng = 7;
  BAS[ATNO][  9].a[  0] =       186.590000000000;     BAS[ATNO][  9].d[  0] =         0.008887378337;
  BAS[ATNO][  9].a[  1] =        54.949000000000;     BAS[ATNO][  9].d[  1] =         0.063571236707;
  BAS[ATNO][  9].a[  2] =        20.191000000000;     BAS[ATNO][  9].d[  2] =         0.218928804764;
  BAS[ATNO][  9].a[  3] =         8.080600000000;     BAS[ATNO][  9].d[  3] =         0.409365292340;
  BAS[ATNO][  9].a[  4] =         3.205200000000;     BAS[ATNO][  9].d[  4] =         0.427812570375;
  BAS[ATNO][  9].a[  5] =         1.177800000000;     BAS[ATNO][  9].d[  5] =         0.184507005351;
  BAS[ATNO][  9].a[  6] =         0.393000000000;     BAS[ATNO][  9].d[  6] =        -0.126370696873;

  // Basis function  11 L = d
  InitBFNGauss(BAS[ATNO][ 10]);
  BAS[ATNO][ 10].l  = 2;
  BAS[ATNO][ 10].ng = 7;
  BAS[ATNO][ 10].a[  0] =       186.590000000000;     BAS[ATNO][ 10].d[  0] =        -0.000798774043;
  BAS[ATNO][ 10].a[  1] =        54.949000000000;     BAS[ATNO][ 10].d[  1] =        -0.005713614507;
  BAS[ATNO][ 10].a[  2] =        20.191000000000;     BAS[ATNO][ 10].d[  2] =        -0.019676741552;
  BAS[ATNO][ 10].a[  3] =         8.080600000000;     BAS[ATNO][ 10].d[  3] =        -0.036792669044;
  BAS[ATNO][ 10].a[  4] =         3.205200000000;     BAS[ATNO][ 10].d[  4] =        -0.038450661570;
  BAS[ATNO][ 10].a[  5] =         1.177800000000;     BAS[ATNO][ 10].d[  5] =        -0.016583001322;
  BAS[ATNO][ 10].a[  6] =         0.393000000000;     BAS[ATNO][ 10].d[  6] =         1.015388709249;

-------
TIMINGS
-------

Total SCF time: 0 days 0 hours 0 min 1 sec 

Total time                  ....       1.985 sec
Sum of individual times     ....       1.807 sec  ( 91.0%)

Fock matrix formation       ....       1.079 sec  ( 54.4%)
  XC integration            ....       0.021 sec  (  1.9% of F)
    Basis function eval.    ....       0.006 sec  ( 29.7% of XC)
    Density eval.           ....       0.001 sec  (  4.2% of XC)
    XC-Functional eval.     ....       0.002 sec  (  8.0% of XC)
    XC-Potential eval.      ....       0.001 sec  (  3.2% of XC)
Diagonalization             ....       0.000 sec  (  0.0%)
Density matrix formation    ....       0.000 sec  (  0.0%)
Population analysis         ....       0.001 sec  (  0.0%)
Initial guess               ....       0.070 sec  (  3.5%)
Orbital Transformation      ....       0.000 sec  (  0.0%)
Orbital Orthonormalization  ....       0.000 sec  (  0.0%)
DIIS solution               ....       0.000 sec  (  0.0%)
SOSCF solution              ....       0.000 sec  (  0.0%)
Grid generation             ....       0.656 sec  ( 33.0%)

-------------------------   --------------------
FINAL SINGLE POINT ENERGY     -1311.802324399383
-------------------------   --------------------


                            ***************************************
                            *     ORCA property calculations      *
                            ***************************************

                                    ---------------------
                                    Active property flags
                                    ---------------------
   (+) Dipole Moment


------------------------------------------------------------------------------
                       ORCA ELECTRIC PROPERTIES CALCULATION
------------------------------------------------------------------------------

Dipole Moment Calculation                       ... on
Quadrupole Moment Calculation                   ... off
Polarizability Calculation                      ... off
GBWName                                         ... Kr_pc-1_137.035989_.gbw
Electron density file                           ... Kr_pc-1_137.035989_.scfp
The origin for moment calculation is the CENTER OF MASS  = ( 0.000000,  0.000000  0.000000)

-------------
DIPOLE MOMENT
-------------
                                X             Y             Z
Electronic contribution:      0.00000      -0.00000       0.00000
Nuclear contribution   :      0.00000       0.00000       0.00000
                        -----------------------------------------
Total Dipole Moment    :      0.00000      -0.00000       0.00000
                        -----------------------------------------
Magnitude (a.u.)       :      0.00000
Magnitude (Debye)      :      0.00000



--------------------
Rotational spectrum 
--------------------
 
Rotational constants in cm-1:     0.000000     0.000000     0.000000 
Rotational constants in MHz :     0.000000     0.000000     0.000000 

 Dipole components along the rotational axes: 
x,y,z [a.u.] :     0.000000    -0.000000     0.000000 
x,y,z [Debye]:     0.000000    -0.000000     0.000000 

 

Timings for individual modules:

Sum of individual times         ...        3.308 sec (=   0.055 min)
GTO integral calculation        ...        0.621 sec (=   0.010 min)  18.8 %
Relativistic integrals          ...        0.452 sec (=   0.008 min)  13.7 %
SCF iterations                  ...        2.235 sec (=   0.037 min)  67.6 %
                             ****ORCA TERMINATED NORMALLY****
TOTAL RUN TIME: 0 days 0 hours 0 minutes 3 seconds 624 msec
