
                                 *****************
                                 * O   R   C   A *
                                 *****************

           --- An Ab Initio, DFT and Semiempirical electronic structure package ---

                  #######################################################
                  #                        -***-                        #
                  #          Department of theory and spectroscopy      #
                  #               Directorship: Frank Neese             #
                  #        Max Planck Institute fuer Kohlenforschung    #
                  #                Kaiser Wilhelm Platz 1               #
                  #                 D-45470 Muelheim/Ruhr               #
                  #                      Germany                        #
                  #                                                     #
                  #                  All rights reserved                #
                  #                        -***-                        #
                  #######################################################


                         Program Version 4.2.1 -  RELEASE  -


 With contributions from (in alphabetic order):
   Daniel Aravena         : Magnetic Suceptibility
   Michael Atanasov       : Ab Initio Ligand Field Theory (pilot matlab implementation)
   Alexander A. Auer      : GIAO ZORA, VPT2
   Ute Becker             : Parallelization
   Giovanni Bistoni       : ED, misc. LED, open-shell LED, HFLD
   Martin Brehm           : Molecular dynamics
   Dmytro Bykov           : SCF Hessian
   Vijay G. Chilkuri      : MRCI spin determinant printing, contributions to CSF-ICE
   Dipayan Datta          : RHF DLPNO-CCSD density
   Achintya Kumar Dutta   : EOM-CC, STEOM-CC
   Dmitry Ganyushin       : Spin-Orbit,Spin-Spin,Magnetic field MRCI
   Miquel Garcia          : C-PCM Hessian, Gaussian charge scheme
   Yang Guo               : DLPNO-NEVPT2, CIM, IAO-localization
   Andreas Hansen         : Spin unrestricted coupled pair/coupled cluster methods
   Benjamin Helmich-Paris : CASSCF linear response (MC-RPA)
   Lee Huntington         : MR-EOM, pCC
   Robert Izsak           : Overlap fitted RIJCOSX, COSX-SCS-MP3, EOM
   Christian Kollmar      : KDIIS, OOCD, Brueckner-CCSD(T), CCSD density
   Simone Kossmann        : Meta GGA functionals, TD-DFT gradient, OOMP2, MP2 Hessian
   Martin Krupicka        : AUTO-CI
   Lucas Lang             : DCDCAS
   Dagmar Lenk            : GEPOL surface, SMD
   Dimitrios Liakos       : Extrapolation schemes; Compound Job, initial MDCI parallelization
   Dimitrios Manganas     : Further ROCIS development; embedding schemes
   Dimitrios Pantazis     : SARC Basis sets
   Taras Petrenko         : DFT Hessian,TD-DFT gradient, ASA, ECA, R-Raman, ABS, FL, XAS/XES, NRVS
   Peter Pinski           : DLPNO-MP2, DLPNO-MP2 Gradient
   Christoph Reimann      : Effective Core Potentials
   Marius Retegan         : Local ZFS, SOC
   Christoph Riplinger    : Optimizer, TS searches, QM/MM, DLPNO-CCSD(T), (RO)-DLPNO pert. Triples
   Tobias Risthaus        : Range-separated hybrids, TD-DFT gradient, RPA, STAB
   Michael Roemelt        : Original ROCIS implementation
   Masaaki Saitow         : Open-shell DLPNO-CCSD energy and density
   Barbara Sandhoefer     : DKH picture change effects
   Avijit Sen             : IP-ROCIS
   Kantharuban Sivalingam : CASSCF convergence, NEVPT2, FIC-MRCI
   Bernardo de Souza      : ESD, SOC TD-DFT
   Georgi Stoychev        : AutoAux, RI-MP2 NMR
   Willem Van den Heuvel  : Paramagnetic NMR
   Boris Wezisla          : Elementary symmetry handling
   Frank Wennmohs         : Technical directorship


 We gratefully acknowledge several colleagues who have allowed us to
 interface, adapt or use parts of their codes:
   Stefan Grimme, W. Hujo, H. Kruse,             : VdW corrections, initial TS optimization,
                  C. Bannwarth                     DFT functionals, gCP, sTDA/sTD-DF
   Ed Valeev, F. Pavosevic, A. Kumar             : LibInt (2-el integral package), F12 methods
   Garnet Chan, S. Sharma, J. Yang, R. Olivares  : DMRG
   Ulf Ekstrom                                   : XCFun DFT Library
   Mihaly Kallay                                 : mrcc  (arbitrary order and MRCC methods)
   Andreas Klamt, Michael Diedenhofen            : otool_cosmo (COSMO solvation model)
   Jiri Pittner, Ondrej Demel                    : Mk-CCSD
   Frank Weinhold                                : gennbo (NPA and NBO analysis)
   Christopher J. Cramer and Donald G. Truhlar   : smd solvation model
   Lars Goerigk                                  : TD-DFT with DH, B97 family of functionals
   V. Asgeirsson, H. Jonsson                     : NEB implementation
   FAccTs GmbH                                   : IRC, NEB, NEB-TS, Multilevel, MM, QM/MM, CI optimization
   S Lehtola, MJT Oliveira, MAL Marques          : LibXC Library


 Your calculation uses the libint2 library for the computation of 2-el integrals
 For citations please refer to: http://libint.valeyev.net

 Your ORCA version has been built with support for libXC version: 4.2.3
 For citations please refer to: https://tddft.org/programs/libxc/

 This ORCA versions uses:
   CBLAS   interface :  Fast vector & matrix operations
   LAPACKE interface :  Fast linear algebra routines
   SCALAPACK package :  Parallel linear algebra routines


----- Orbital basis set information -----
Your calculation utilizes the basis: ZORA-def2-QZVPP 
   Exponents from def2-QZVPP [F. Weigend and R. Ahlrichs, Phys. Chem. Chem. Phys. 7, 3297 (2005)],
   recontracted for ZORA by D. A. Pantazis.

================================================================================
                                        WARNINGS
                       Please study these warnings very carefully!
================================================================================


INFO   : the flag for use of LIBINT has been found!

================================================================================
                                       INPUT FILE
================================================================================
NAME = Kr_zora-def2-qzvpp_34.25899725_.inp
|  1> ! LDA zora-def2-qzvpp nori grid5 finalgrid6 verytightscf
|  2> %Pal NProcs 18 End
|  3> 
|  4> % REL
|  5>   Method ZORA
|  6>   ModelPot 1, 0, 0, 0
|  7>   velit 34.25899725
|  8> END
|  9> 
| 10> *xyz 34 1
| 11> Kr 0.0 0.0 0.0
| 12> **                         ****END OF INPUT****
================================================================================

                       ****************************
                       * Single Point Calculation *
                       ****************************

---------------------------------
CARTESIAN COORDINATES (ANGSTROEM)
---------------------------------
  Kr     0.000000    0.000000    0.000000

----------------------------
CARTESIAN COORDINATES (A.U.)
----------------------------
  NO LB      ZA    FRAG     MASS         X           Y           Z
   0 Kr   36.0000    0    83.800    0.000000    0.000000    0.000000

--------------------------------
INTERNAL COORDINATES (ANGSTROEM)
--------------------------------
 Kr     0   0   0     0.000000000000     0.00000000     0.00000000

---------------------------
INTERNAL COORDINATES (A.U.)
---------------------------
 Kr     0   0   0     0.000000000000     0.00000000     0.00000000

---------------------
BASIS SET INFORMATION
---------------------
There are 1 groups of distinct atoms

 Group   1 Type Kr  : 24s20p10d4f1g contracted to 14s11p4d4f1g pattern {111111111111111/101111111111/7111/1111/1}

Atom   0Kr   basis set group =>   1


           ************************************************************
           *        Program running with 18 parallel MPI-processes    *
           *              working on a common directory               *
           ************************************************************
------------------------------------------------------------------------------
                           ORCA GTO INTEGRAL CALCULATION
------------------------------------------------------------------------------

                         BASIS SET STATISTICS AND STARTUP INFO

 # of primitive gaussian shells          ...   59
 # of primitive gaussian functions       ...  171
 # of contracted shells                  ...   34
 # of contracted basis functions         ...  104
 Highest angular momentum                ...    4
 Maximum contraction depth               ...   11
 Integral package used                   ... LIBINT
 Integral threshhold            Thresh   ...  1.000e-12
 Primitive cut-off              TCut     ...  1.000e-14


------------------------------ INTEGRAL EVALUATION ----------------------------


 * One electron integrals 
 Pre-screening matrix                    ... done
 Shell pair data                         ... done (   0.000 sec)



           ************************************************************
           *        Program running with 18 parallel MPI-processes    *
           *              working on a common directory               *
           ************************************************************
------------------------------------------------------------------------------
                          ORCA RELATIVISTIC HAMILTONIAN
------------------------------------------------------------------------------

Relativistic Method            ... ZORA(MP)
Treatment of potential         ... Van Wuellen
Nucleus model                  ... Point Nucleus
Speed of light used            ...  34.25899725000000


            *************************************************
            *         ZERO ORDER REGULAR APPROXIMATION      *
            *                     ZORA(MP)                  *
            *            Programmed by FN according to      *
            *                   C. van Wuellen              *
            *       J. Chem. Phys. (1998) vol 109, 392-399  *
            *************************************************

Terms included in model potential: +V(e,N)
Basis function cutoff value   ... 1.000000e-12
Loading the fitted atomic densities  (DKH4)  ... done
Calculating the cutoffs                      ... done
Number of fit functions                      ... 27
Setting up the integration grid ... done


           ************************************************************
           *        Program running with 18 parallel MPI-processes    *
           *              working on a common directory               *
           ************************************************************
-------------------------------------------------------------------------------
                                 ORCA SCF
-------------------------------------------------------------------------------

------------
SCF SETTINGS
------------
Hamiltonian:
 Density Functional     Method          .... DFT(GTOs)
 Exchange Functional    Exchange        .... Slater
   X-Alpha parameter    XAlpha          ....  0.666667
 Correlation Functional Correlation     .... VWN-5
 Gradients option       PostSCFGGA      .... off
   Density functional embedding theory  .... OFF

Relativistic Settings:
 Scalar relativistic method             .... ZORA
 Speed of light used       Velit        ....       34.2589973
Orbital energies will be scaled


General Settings:
 Integral files         IntName         .... Kr_zora-def2-qzvpp_34.25899725_
 Hartree-Fock type      HFTyp           .... RHF
 Total Charge           Charge          ....   34
 Multiplicity           Mult            ....    1
 Number of Electrons    NEL             ....    2
 Basis Dimension        Dim             ....  104
 Nuclear Repulsion      ENuc            ....      0.0000000000 Eh

Convergence Acceleration:
 DIIS                   CNVDIIS         .... on
   Start iteration      DIISMaxIt       ....    12
   Startup error        DIISStart       ....  0.200000
   # of expansion vecs  DIISMaxEq       ....     5
   Bias factor          DIISBfac        ....   1.050
   Max. coefficient     DIISMaxC        ....  10.000
 Newton-Raphson         CNVNR           .... off
 SOSCF                  CNVSOSCF        .... on
   Start iteration      SOSCFMaxIt      ....   150
   Startup grad/error   SOSCFStart      ....  0.003300
 Level Shifting         CNVShift        .... on
   Level shift para.    LevelShift      ....    0.2500
   Turn off err/grad.   ShiftErr        ....    0.0010
 Zerner damping         CNVZerner       .... off
 Static damping         CNVDamp         .... on
   Fraction old density DampFac         ....    0.7000
   Max. Damping (<1)    DampMax         ....    0.9800
   Min. Damping (>=0)   DampMin         ....    0.0000
   Turn off err/grad.   DampErr         ....    0.1000
 Fernandez-Rico         CNVRico         .... off

SCF Procedure:
 Maximum # iterations   MaxIter         ....   125
 SCF integral mode      SCFMode         .... Direct
   Integral package                     .... LIBINT
 Reset frequency        DirectResetFreq ....    20
 Integral Threshold     Thresh          ....  1.000e-12 Eh
 Primitive CutOff       TCut            ....  1.000e-14 Eh

Convergence Tolerance:
 Convergence Check Mode ConvCheckMode   .... Total+1el-Energy
 Convergence forced     ConvForced      .... 0
 Energy Change          TolE            ....  1.000e-09 Eh
 1-El. energy change                    ....  1.000e-06 Eh
 Orbital Gradient       TolG            ....  2.000e-06
 Orbital Rotation angle TolX            ....  2.000e-06
 DIIS Error             TolErr          ....  1.000e-08


Diagonalization of the overlap matrix:
Smallest eigenvalue                        ... 2.527e-04
Time for diagonalization                   ...    0.003 sec
Threshold for overlap eigenvalues          ... 1.000e-08
Number of eigenvalues below threshold      ... 0
Time for construction of square roots      ...    0.002 sec
Total time needed                          ...    0.005 sec

-------------------
DFT GRID GENERATION
-------------------

General Integration Accuracy     IntAcc      ...  5.010
Radial Grid Type                 RadialGrid  ... Gauss-Chebyshev
Angular Grid (max. acc.)         AngularGrid ... Lebedev-434
Angular grid pruning method      GridPruning ... 3 (G Style)
Weight generation scheme         WeightScheme... Becke
Basis function cutoff            BFCut       ...    1.0000e-12
Integration weight cutoff        WCut        ...    1.0000e-14
Grids for H and He will be reduced by one unit

# of grid points (after initial pruning)     ...  16106 (   0.0 sec)
# of grid points (after weights+screening)   ...  16106 (   0.0 sec)
Grid point division into batches done        ...    0.2 sec
Reduced shell lists constructed in    0.2 sec

Total number of grid points                  ...    16106
Total number of batches                      ...      252
Average number of points per batch           ...       63
Average number of grid points per atom       ...    16106
Average number of shells per batch           ...     1.47 ( 4.31%)
Average number of basis functions per batch  ...     3.33 ( 3.21%)
Average number of large shells per batch     ...     0.93 (63.64%)
Average number of large basis fcns per batch ...     2.80 (84.00%)
Maximum spatial batch extension              ...  17.34, 17.34, 17.34 au
Average spatial batch extension              ...   0.86,  0.87,  0.87 au

Time for grid setup =    0.242 sec

------------------------------
INITIAL GUESS: MODEL POTENTIAL
------------------------------
Loading ZORA relativistic densities                ... done
Calculating cut-offs                               ... done
Setting up the integral package                    ... done
Initializing the effective Hamiltonian             ... done
Starting the Coulomb interaction                   ... done (   0.0 sec)
Reading the grid                                   ... done
Mapping shells                                     ... done
Starting the XC term evaluation                    ... done (   0.0 sec)
  promolecular density results
     # of electrons  =     36.000000565
     EX              =    -91.042004939
     EC              =     -3.295965580
     EX+EC           =    -94.337970520
Transforming the Hamiltonian                       ... done (   0.0 sec)
Diagonalizing the Hamiltonian                      ... done (   0.0 sec)
Back transforming the eigenvectors                 ... done (   0.0 sec)
Now organizing SCF variables                       ... done
                      ------------------
                      INITIAL GUESS DONE (   0.3 sec)
                      ------------------
--------------
SCF ITERATIONS
--------------
ITER       Energy         Delta-E        Max-DP      RMS-DP      [F,P]     Damp
               ***  Starting incremental Fock matrix formation  ***
  0  -2941.3008077607   0.000000000000 4.59002832  0.05374041 25.8564142 0.7000
  1  -2941.4751965715  -0.174388810822 3.17407412  0.03716298 17.9159823 0.7000
  2  -2941.5956328150  -0.120436243517 2.19452924  0.02569463 12.4126165 0.7000
  3  -2941.6791553006  -0.083522485560 1.51727824  0.01776535  8.5996237 0.7000
  4  -2941.7372463360  -0.058091035440 1.04902905  0.01228298  5.9578932 0.7000
  5  -2941.7777307020  -0.040484365935 0.72528284  0.00849242  4.1276773 0.7000
  6  -2941.8059838989  -0.028253196960 0.50144615  0.00587159  2.8596989 0.7000
  7  -2941.8257200337  -0.019736134758 0.34668717  0.00405954  1.9812427 0.7000
  8  -2941.8395156502  -0.013795616502 0.23968866  0.00280669  1.3726466 0.7000
  9  -2941.8491631610  -0.009647510824 0.16571172  0.00194048  0.9510078 0.7000
 10  -2941.8559119078  -0.006748746810 0.11456574  0.00134159  0.6588920 0.7000
                      *** Initiating the SOSCF procedure ***
                      *** Re-Reading the Fockian *** 
                      *** Removing any level shift *** 
ITER      Energy       Delta-E        Grad      Rot      Max-DP    RMS-DP
 11  -2941.86063387  -0.0047219636  0.002833  0.002833  0.264016  0.003092
               *** Restarting incremental Fock matrix formation ***
 12  -2941.87164505  -0.0110111805  0.006533  0.000004  0.007620  0.000089
 13  -2941.87164517  -0.0000001229  0.000176  0.000000  0.000200  0.000002
                 **** Energy Check signals convergence ****
              ***Rediagonalizing the Fockian in SOSCF/NRSCF***

               *****************************************************
               *                     SUCCESS                       *
               *           SCF CONVERGED AFTER  14 CYCLES          *
               *****************************************************

Setting up the final grid:

General Integration Accuracy     IntAcc      ...  5.340
Radial Grid Type                 RadialGrid  ... Gauss-Chebyshev
Angular Grid (max. acc.)         AngularGrid ... Lebedev-590
Angular grid pruning method      GridPruning ... 3 (G Style)
Weight generation scheme         WeightScheme... Becke
Basis function cutoff            BFCut       ...    1.0000e-12
Integration weight cutoff        WCut        ...    1.0000e-14
Grids for H and He will be reduced by one unit

# of grid points (after initial pruning)     ...  24180 (   0.0 sec)
# of grid points (after weights+screening)   ...  24180 (   0.0 sec)
Grid point division into batches done        ...    0.4 sec
Reduced shell lists constructed in    0.4 sec

Total number of grid points                  ...    24180
Total number of batches                      ...      378
Average number of points per batch           ...       63
Average number of grid points per atom       ...    24180
Average number of shells per batch           ...     0.27 ( 0.80%)
Average number of basis functions per batch  ...     0.55 ( 0.52%)
Average number of large shells per batch     ...     0.14 (50.00%)
Average number of large basis fcns per batch ...     0.41 (75.00%)
Maximum spatial batch extension              ...  17.58, 17.58, 17.58 au
Average spatial batch extension              ...   0.77,  0.77,  0.77 au

Final grid set up in    0.5 sec
Final integration                            ... done (   0.0 sec)
Change in XC energy                          ...     0.001180417
Integrated number of electrons               ...     2.000046354
Previous integrated no of electrons          ...     1.999802522

----------------
TOTAL SCF ENERGY
----------------

Total Energy       :        -2941.87046476 Eh          -80052.36513 eV

Components:
Nuclear Repulsion  :            0.00000000 Eh               0.00000 eV
Electronic Energy  :        -2941.87046476 Eh          -80052.36513 eV
One Electron Energy:        -3015.73092191 Eh          -82062.21035 eV
Two Electron Energy:           73.86045715 Eh            2009.84522 eV

Virial components:
Potential Energy   :        -8460.96164047 Eh         -230234.47113 eV
Kinetic Energy     :         5519.09117571 Eh          150182.10600 eV
Virial Ratio       :            1.53303531


DFT components:
N(Alpha)           :        1.000023176872 electrons
N(Beta)            :        1.000023176872 electrons
N(Total)           :        2.000046353744 electrons
E(X)               :      -58.644300311264 Eh       
E(C)               :       -0.340020741331 Eh       
E(XC)              :      -58.984321052595 Eh       
DFET-embed. en.    :        0.000000000000 Eh       

---------------
SCF CONVERGENCE
---------------

  Last Energy change         ...    9.5497e-12  Tolerance :   1.0000e-09
  Last MAX-Density change    ...    0.0000e+00  Tolerance :   1.0000e-08
  Last RMS-Density change    ...    0.0000e+00  Tolerance :   1.0000e-09
  Last Orbital Gradient      ...    7.3752e-10  Tolerance :   2.0000e-06
  Last Orbital Rotation      ...    0.0000e+00  Tolerance :   2.0000e-06

================================================================================
                                        WARNING
Number of found core electrons (2) does not match given number of chemical core electrons (18)
================================================================================
             **** THE GBW FILE WAS UPDATED (Kr_zora-def2-qzvpp_34.25899725_.gbw) ****
             **** DENSITY FILE WAS UPDATED (Kr_zora-def2-qzvpp_34.25899725_.scfp) ****
             **** ENERGY FILE WAS UPDATED (Kr_zora-def2-qzvpp_34.25899725_.en.tmp) ****
             **** THE GBW FILE WAS UPDATED (Kr_zora-def2-qzvpp_34.25899725_.gbw) ****
             **** DENSITY FILE WAS UPDATED (Kr_zora-def2-qzvpp_34.25899725_.scfp) ****
----------------
ORBITAL ENERGIES
----------------

  NO   OCC          E(Eh)            E(eV) 
   0   2.0000   -1414.297770    -38484.9989 
   1   0.0000    -280.521240     -7633.3710 
   2   0.0000    -181.621465     -4942.1713 
   3   0.0000    -181.621465     -4942.1713 
   4   0.0000    -181.621465     -4942.1713 
   5   0.0000    -103.098589     -2805.4552 
   6   0.0000     -76.371334     -2078.1697 
   7   0.0000     -76.371334     -2078.1697 
   8   0.0000     -76.371334     -2078.1697 
   9   0.0000     -61.474264     -1672.7998 
  10   0.0000     -61.474264     -1672.7998 
  11   0.0000     -61.474264     -1672.7998 
  12   0.0000     -61.474264     -1672.7998 
  13   0.0000     -61.474264     -1672.7998 
  14   0.0000     -51.908479     -1412.5015 
  15   0.0000     -41.377704     -1125.9446 
  16   0.0000     -41.377704     -1125.9446 
  17   0.0000     -41.377704     -1125.9446 
  18   0.0000     -37.195088     -1012.1298 
  19   0.0000     -37.195088     -1012.1298 
  20   0.0000     -37.195088     -1012.1298 
  21   0.0000     -37.195088     -1012.1298 
  22   0.0000     -37.195088     -1012.1298 
  23   0.0000     -37.195088     -1012.1298 
  24   0.0000     -37.195088     -1012.1298 
  25   0.0000     -30.974208      -842.8511 
  26   0.0000     -29.234282      -795.5052 
  27   0.0000     -29.234282      -795.5052 
  28   0.0000     -29.234282      -795.5052 
  29   0.0000     -29.234282      -795.5052 
  30   0.0000     -29.234282      -795.5052 
  31   0.0000     -25.879229      -704.2096 
  32   0.0000     -25.879229      -704.2096 
  33   0.0000     -25.879229      -704.2096 
  34   0.0000     -21.707676      -590.6959 
  35   0.0000     -21.707676      -590.6959 
  36   0.0000     -21.707676      -590.6959 
  37   0.0000     -21.707676      -590.6959 
  38   0.0000     -21.707676      -590.6959 
  39   0.0000     -21.707676      -590.6959 
  40   0.0000     -21.707676      -590.6959 
  41   0.0000     -20.407133      -555.3063 
  42   0.0000     -17.650454      -480.2933 
  43   0.0000     -17.650454      -480.2933 
  44   0.0000     -17.650454      -480.2933 
  45   0.0000     -17.147848      -466.6167 
  46   0.0000     -17.147848      -466.6167 
  47   0.0000     -17.147848      -466.6167 
  48   0.0000     -17.147848      -466.6167 
  49   0.0000     -17.147848      -466.6167 
  50   0.0000     -15.771868      -429.1744 
  51   0.0000     -15.771868      -429.1744 
  52   0.0000     -15.771868      -429.1744 
  53   0.0000     -15.771868      -429.1744 
  54   0.0000     -15.771868      -429.1744 
  55   0.0000     -15.771868      -429.1744 
  56   0.0000     -15.771868      -429.1744 
  57   0.0000     -14.931846      -406.3162 
  58   0.0000     -14.931846      -406.3162 
  59   0.0000     -14.931846      -406.3162 
  60   0.0000     -14.931846      -406.3162 
  61   0.0000     -14.931846      -406.3162 
  62   0.0000     -14.931846      -406.3162 
  63   0.0000     -14.931846      -406.3162 
  64   0.0000     -14.931846      -406.3162 
  65   0.0000     -14.931846      -406.3162 
  66   0.0000     -13.943825      -379.4308 
  67   0.0000     -12.693877      -345.4180 
  68   0.0000     -12.693877      -345.4180 
  69   0.0000     -12.693877      -345.4180 
  70   0.0000     -11.439161      -311.2754 
  71   0.0000     -11.439161      -311.2754 
  72   0.0000     -11.439161      -311.2754 
  73   0.0000     -11.439161      -311.2754 
  74   0.0000     -11.439161      -311.2754 
  75   0.0000     -11.439161      -311.2754 
  76   0.0000     -11.439161      -311.2754 
  77   0.0000     -10.811658      -294.2002 
  78   0.0000     -10.811658      -294.2002 
  79   0.0000     -10.811658      -294.2002 
  80   0.0000     -10.811658      -294.2002 
  81   0.0000     -10.811658      -294.2002 
  82   0.0000      -9.690004      -263.6784 
  83   0.0000      -9.690004      -263.6784 
  84   0.0000      -9.690004      -263.6784 
  85   0.0000      -9.307591      -253.2724 
  86   0.0000      -6.977403      -189.8648 
  87   0.0000      -6.977403      -189.8648 
  88   0.0000      -6.977403      -189.8648 
  89   0.0000      -3.906761      -106.3084 
  90   0.0000      43.514600      1184.0925 
  91   0.0000      43.514600      1184.0925 
  92   0.0000      43.514600      1184.0925 
  93   0.0000      72.404287      1970.2208 
  94   0.0000     194.295850      5287.0589 
  95   0.0000     194.295850      5287.0589 
  96   0.0000     194.295850      5287.0589 
  97   0.0000     321.829511      8757.4262 
  98   0.0000     623.523055     16966.9249 
  99   0.0000     623.523055     16966.9249 
 100   0.0000     623.523055     16966.9249 
 101   0.0000     951.187194     25883.1194 
 102   0.0000    2588.236865     70429.5057 
 103   0.0000    6886.609662    187394.1758 

                    ********************************
                    * MULLIKEN POPULATION ANALYSIS *
                    ********************************

-----------------------
MULLIKEN ATOMIC CHARGES
-----------------------
   0 Kr:   34.000000
Sum of atomic charges:   34.0000000

--------------------------------
MULLIKEN REDUCED ORBITAL CHARGES
--------------------------------
  0 Krs       :     2.000000  s :     2.000000
      pz      :     0.000000  p :     0.000000
      px      :     0.000000
      py      :     0.000000
      dz2     :     0.000000  d :     0.000000
      dxz     :     0.000000
      dyz     :     0.000000
      dx2y2   :     0.000000
      dxy     :     0.000000
      f0      :     0.000000  f :     0.000000
      f+1     :     0.000000
      f-1     :     0.000000
      f+2     :     0.000000
      f-2     :     0.000000
      f+3     :     0.000000
      f-3     :     0.000000
      g0      :     0.000000  g :     0.000000
      g+1     :     0.000000
      g-1     :     0.000000
      g+2     :     0.000000
      g-2     :     0.000000
      g+3     :     0.000000
      g-3     :     0.000000
      g+4     :     0.000000
      g-4     :     0.000000


                     *******************************
                     * LOEWDIN POPULATION ANALYSIS *
                     *******************************

----------------------
LOEWDIN ATOMIC CHARGES
----------------------
   0 Kr:   34.000000

-------------------------------
LOEWDIN REDUCED ORBITAL CHARGES
-------------------------------
  0 Krs       :     2.000000  s :     2.000000
      pz      :     0.000000  p :     0.000000
      px      :     0.000000
      py      :     0.000000
      dz2     :     0.000000  d :     0.000000
      dxz     :     0.000000
      dyz     :     0.000000
      dx2y2   :     0.000000
      dxy     :     0.000000
      f0      :     0.000000  f :     0.000000
      f+1     :     0.000000
      f-1     :     0.000000
      f+2     :     0.000000
      f-2     :     0.000000
      f+3     :     0.000000
      f-3     :     0.000000
      g0      :     0.000000  g :     0.000000
      g+1     :     0.000000
      g-1     :     0.000000
      g+2     :     0.000000
      g-2     :     0.000000
      g+3     :     0.000000
      g-3     :     0.000000
      g+4     :     0.000000
      g-4     :     0.000000


                      *****************************
                      * MAYER POPULATION ANALYSIS *
                      *****************************

  NA   - Mulliken gross atomic population
  ZA   - Total nuclear charge
  QA   - Mulliken gross atomic charge
  VA   - Mayer's total valence
  BVA  - Mayer's bonded valence
  FA   - Mayer's free valence

  ATOM       NA         ZA         QA         VA         BVA        FA
  0 Kr     2.0000    36.0000    34.0000     0.0000     0.0000     0.0000

  Mayer bond orders larger than 0.100000


--------------------------
ATOM BASIS FOR ELEMENT Kr
--------------------------
 NewGTO Kr
 S 24
    1   11713823.007999999449        -0.000783901676
    2    1755253.397899999982        -0.002806142842
    3     399717.419240000017        -0.009138257731
    4     113285.792600000001        -0.028489035934
    5      36977.205292999999        -0.085236623719
    6      13355.036580000000        -0.242948284272
    7       5210.901298800000        -0.645765765211
    8       2162.113702000000        -1.559543299266
    9        943.292910230000        -3.142930078835
   10        429.207243310000        -5.498128137772
   11        202.407208400000        -5.516483671815
   12       3260.498552100000         1.297041986257
   13       1011.106971600000         3.378870826967
   14        392.443592730000         6.540991273920
   15        173.217021320000         4.767497508699
   16         96.619988467000        -0.593251965957
   17         38.158284867000         0.135136471954
   18         18.959517570000        -0.080991291480
   19          9.250599619900         0.044208870537
   20          4.348651762100        -0.022620628935
   21          2.038032420900         0.009990099426
   22          0.691101525400        -0.004449894023
   23          0.335060651400         0.002575931561
   24          0.140744411200        -0.000647551131
 S 24
    1   11713823.007999999449        -0.000301254948
    2    1755253.397899999982        -0.001078406185
    3     399717.419240000017        -0.003511850328
    4     113285.792600000001        -0.010948392258
    5      36977.205292999999        -0.032756601290
    6      13355.036580000000        -0.093365501057
    7       5210.901298800000        -0.248169047233
    8       2162.113702000000        -0.599335541690
    9        943.292910230000        -1.207834179518
   10        429.207243310000        -2.112941402322
   11        202.407208400000        -2.119995469973
   12       3260.498552100000         0.486940650088
   13       1011.106971600000         1.282174679521
   14        392.443592730000         2.606969795673
   15        173.217021320000         2.048430293363
   16         96.619988467000         0.276632783490
   17         38.158284867000         0.436831736545
   18         18.959517570000        -0.106048624744
   19          9.250599619900         0.072311061580
   20          4.348651762100        -0.039001075471
   21          2.038032420900         0.017728025998
   22          0.691101525400        -0.008023730058
   23          0.335060651400         0.004657524235
   24          0.140744411200        -0.001171198202
 S 24
    1   11713823.007999999449        -0.000149038411
    2    1755253.397899999982        -0.000533514702
    3     399717.419240000017        -0.001737400811
    4     113285.792600000001        -0.005416445410
    5      36977.205292999999        -0.016205515706
    6      13355.036580000000        -0.046190264990
    7       5210.901298800000        -0.122775478354
    8       2162.113702000000        -0.296506388069
    9        943.292910230000        -0.597545990591
   10        429.207243310000        -1.045325330844
   11        202.407208400000        -1.048815155784
   12       3260.498552100000         0.240401547245
   13       1011.106971600000         0.633172503809
   14        392.443592730000         1.312651902150
   15        173.217021320000         1.060654134096
   16         96.619988467000         0.368824508555
   17         38.158284867000         0.336312612768
   18         18.959517570000        -0.936091438373
   19          9.250599619900        -0.435403611768
   20          4.348651762100        -0.030608208438
   21          2.038032420900         0.009676192320
   22          0.691101525400        -0.004650248935
   23          0.335060651400         0.002740719582
   24          0.140744411200        -0.000693010236
 S 24
    1   11713823.007999999449        -0.000090352473
    2    1755253.397899999982        -0.000323435901
    3     399717.419240000017        -0.001053275187
    4     113285.792600000001        -0.003283645037
    5      36977.205292999999        -0.009824369527
    6      13355.036580000000        -0.028002208633
    7       5210.901298800000        -0.074430933891
    8       2162.113702000000        -0.179752892552
    9        943.292910230000        -0.362253983602
   10        429.207243310000        -0.633714008999
   11        202.407208400000        -0.635829667051
   12       3260.498552100000         0.145584854222
   13       1011.106971600000         0.384108094914
   14        392.443592730000         0.798498534378
   15        173.217021320000         0.662244058659
   16         96.619988467000         0.269412717758
   17         38.158284867000         0.276464280006
   18         18.959517570000        -1.443056865928
   19          9.250599619900        -0.272309251217
   20          4.348651762100         1.520008634883
   21          2.038032420900         0.051591284679
   22          0.691101525400         0.015208212047
   23          0.335060651400        -0.009610883248
   24          0.140744411200         0.002464423948
 S 24
    1   11713823.007999999449        -0.000061601011
    2    1755253.397899999982        -0.000220513925
    3     399717.419240000017        -0.000718107806
    4     113285.792600000001        -0.002238741747
    5      36977.205292999999        -0.006698113209
    6      13355.036580000000        -0.019091501295
    7       5210.901298800000        -0.050745935415
    8       2162.113702000000        -0.122552925232
    9        943.292910230000        -0.246979532496
   10        429.207243310000        -0.432057055999
   11        202.407208400000        -0.433499481093
   12       3260.498552100000         0.099137017881
   13       1011.106971600000         0.262385721858
   14        392.443592730000         0.543144324935
   15        173.217021320000         0.465950342657
   16         96.619988467000         0.181569636673
   17         38.158284867000         0.260652289404
   18         18.959517570000        -1.564730769217
   19          9.250599619900         0.242650052252
   20          4.348651762100         3.008638363507
   21          2.038032420900        -2.562755050370
   22          0.691101525400        -0.085740603875
   23          0.335060651400         0.010301407135
   24          0.140744411200        -0.000071079562
 S 24
    1   11713823.007999999449        -0.000043564979
    2    1755253.397899999982        -0.000155950110
    3     399717.419240000017        -0.000507854511
    4     113285.792600000001        -0.001583265194
    5      36977.205292999999        -0.004736986535
    6      13355.036580000000        -0.013501740226
    7       5210.901298800000        -0.035888138231
    8       2162.113702000000        -0.086670908425
    9        943.292910230000        -0.174666907406
   10        429.207243310000        -0.305555966649
   11        202.407208400000        -0.306576067092
   12       3260.498552100000         0.069873741178
   13       1011.106971600000         0.186816550833
   14        392.443592730000         0.378504410889
   15        173.217021320000         0.356275026800
   16         96.619988467000         0.085812492344
   17         38.158284867000         0.326790928207
   18         18.959517570000        -1.686621602071
   19          9.250599619900         1.145652403322
   20          4.348651762100         2.339024097086
   21          2.038032420900        -4.427416747955
   22          0.691101525400         3.226964249901
   23          0.335060651400        -0.840874533815
   24          0.140744411200         0.166946484424
 S 24
    1   11713823.007999999449        -0.000029599687
    2    1755253.397899999982        -0.000105958377
    3     399717.419240000017        -0.000345055477
    4     113285.792600000001        -0.001075729987
    5      36977.205292999999        -0.003218487013
    6      13355.036580000000        -0.009173590690
    7       5210.901298800000        -0.024383752407
    8       2162.113702000000        -0.058887478596
    9        943.292910230000        -0.118675273610
   10        429.207243310000        -0.207606228814
   11        202.407208400000        -0.208299323465
   12       3260.498552100000         0.047202834021
   13       1011.106971600000         0.128410724454
   14        392.443592730000         0.250198840062
   15        173.217021320000         0.272620800022
   16         96.619988467000         0.002315177908
   17         38.158284867000         0.389068667269
   18         18.959517570000        -1.708749077891
   19          9.250599619900         1.978959028860
   20          4.348651762100         0.199985507273
   21          2.038032420900        -2.889556249370
   22          0.691101525400         5.551467507348
   23          0.335060651400        -4.666146401392
   24          0.140744411200         0.691452973796
 S 24
    1   11713823.007999999449        -0.000021449412
    2    1755253.397899999982        -0.000076782734
    3     399717.419240000017        -0.000250044438
    4     113285.792600000001        -0.000779527694
    5      36977.205292999999        -0.002332276491
    6      13355.036580000000        -0.006647642144
    7       5210.901298800000        -0.017669685252
    8       2162.113702000000        -0.042672809120
    9        943.292910230000        -0.085998032498
   10        429.207243310000        -0.150441845798
   11        202.407208400000        -0.150944096810
   12       3260.498552100000         0.034012361057
   13       1011.106971600000         0.094109310199
   14        392.443592730000         0.176282016051
   15        173.217021320000         0.219419645139
   16         96.619988467000        -0.039499033542
   17         38.158284867000         0.405516608763
   18         18.959517570000        -1.653433064249
   19          9.250599619900         2.422423766798
   20          4.348651762100        -1.525748188156
   21          2.038032420900        -0.381239834199
   22          0.691101525400         3.405457098231
   23          0.335060651400        -5.276304838775
   24          0.140744411200         3.065764725888
 S 24
    1   11713823.007999999449         0.000088949091
    2    1755253.397899999982         0.000318412196
    3     399717.419240000017         0.001036915394
    4     113285.792600000001         0.003232642458
    5      36977.205292999999         0.009671774413
    6      13355.036580000000         0.027567269760
    7       5210.901298800000         0.073274849850
    8       2162.113702000000         0.176960915622
    9        943.292910230000         0.356627343881
   10        429.207243310000         0.623870969099
   11        202.407208400000         0.625953766102
   12       3260.498552100000        -0.140556969583
   13       1011.106971600000        -0.392920019480
   14        392.443592730000        -0.718487345926
   15        173.217021320000        -0.967444161124
   16         96.619988467000         0.270145039838
   17         38.158284867000        -2.045963941245
   18         18.959517570000         8.354725914710
   19          9.250599619900       -14.215540033593
   20          4.348651762100        14.692299847520
   21          2.038032420900        -9.961652845571
   22          0.691101525400         6.570301556593
   23          0.335060651400        -4.639190735838
   24          0.140744411200         1.412270743160
 S 24
    1   11713823.007999999449        -0.000197752950
    2    1755253.397899999982        -0.000707898763
    3     399717.419240000017        -0.002305285833
    4     113285.792600000001        -0.007186859124
    5      36977.205292999999        -0.021502433718
    6      13355.036580000000        -0.061287966975
    7       5210.901298800000        -0.162905743543
    8       2162.113702000000        -0.393422157756
    9        943.292910230000        -0.792859251727
   10        429.207243310000        -1.386999281520
   11        202.407208400000        -1.391629787011
   12       3260.498552100000         0.333672584073
   13       1011.106971600000         0.754184022767
   14        392.443592730000         2.201833487293
   15        173.217021320000        -0.343130531877
   16         96.619988467000         4.971156681620
   17         38.158284867000       -12.293435697368
   18         18.959517570000        17.055900432109
   19          9.250599619900       -14.167789821793
   20          4.348651762100         8.737765496653
   21          2.038032420900        -4.144987632826
   22          0.691101525400         1.920617985572
   23          0.335060651400        -1.128707603912
   24          0.140744411200         0.287445938385
 S 24
    1   11713823.007999999449        -0.000322959598
    2    1755253.397899999982        -0.001156102599
    3     399717.419240000017        -0.003764870183
    4     113285.792600000001        -0.011737195982
    5      36977.205292999999        -0.035116630823
    6      13355.036580000000        -0.100092247155
    7       5210.901298800000        -0.266048993799
    8       2162.113702000000        -0.642516138063
    9        943.292910230000        -1.294855549958
   10        429.207243310000        -2.265173438480
   11        202.407208400000        -2.272735733705
   12       3260.498552100000         0.463097664661
   13       1011.106971600000         1.688588472361
   14        392.443592730000         1.344311083294
   15        173.217021320000        11.102876651091
   16         96.619988467000       -13.794478104219
   17         38.158284867000        12.872406469140
   18         18.959517570000       -11.796234263504
   19          9.250599619900         7.750014129670
   20          4.348651762100        -4.271522249496
   21          2.038032420900         1.938937955895
   22          0.691101525400        -0.876725654907
   23          0.335060651400         0.510225010600
   24          0.140744411200        -0.128808935168
 S 24
    1   11713823.007999999449        -0.000574816554
    2    1755253.397899999982        -0.002057678159
    3     399717.419240000017        -0.006700868203
    4     113285.792600000001        -0.020890336063
    5      36977.205292999999        -0.062501999663
    6      13355.036580000000        -0.178148229238
    7       5210.901298800000        -0.473524758242
    8       2162.113702000000        -1.143576206013
    9        943.292910230000        -2.304636272048
   10        429.207243310000        -4.031647289898
   11        202.407208400000        -4.045106968761
   12       3260.498552100000         1.069450421251
   13       1011.106971600000         1.553950020144
   14        392.443592730000        11.615433257563
   15        173.217021320000       -10.543470919575
   16         96.619988467000        12.607746157533
   17         38.158284867000        -8.118171376917
   18         18.959517570000         6.593538606719
   19          9.250599619900        -4.146945586617
   20          4.348651762100         2.263025648813
   21          2.038032420900        -1.027245466544
   22          0.691101525400         0.464791128929
   23          0.335060651400        -0.270336410427
   24          0.140744411200         0.068175766631
 S 24
    1   11713823.007999999449        -0.000901305307
    2    1755253.397899999982        -0.003226414118
    3     399717.419240000017        -0.010506879165
    4     113285.792600000001        -0.032755790755
    5      36977.205292999999        -0.098002368969
    6      13355.036580000000        -0.279334238697
    7       5210.901298800000        -0.742481013778
    8       2162.113702000000        -1.793113466603
    9        943.292910230000        -3.613641411304
   10        429.207243310000        -6.321573507825
   11        202.407208400000        -6.342678119217
   12       3260.498552100000         0.894690778849
   13       1011.106971600000         8.800509434225
   14        392.443592730000        -0.185256852689
   15        173.217021320000        15.680966093513
   16         96.619988467000        -8.622909038070
   17         38.158284867000         4.663755803564
   18         18.959517570000        -3.696149043826
   19          9.250599619900         2.322377627842
   20          4.348651762100        -1.272798955468
   21          2.038032420900         0.579779733406
   22          0.691101525400        -0.262886050604
   23          0.335060651400         0.152945057442
   24          0.140744411200        -0.038567056156
 S 24
    1   11713823.007999999449        -0.002437028734
    2    1755253.397899999982        -0.008723862886
    3     399717.419240000017        -0.028409426020
    4     113285.792600000001        -0.088567994315
    5      36977.205292999999        -0.264987443678
    6      13355.036580000000        -0.755288536623
    7       5210.901298800000        -2.007585611353
    8       2162.113702000000        -4.848378245738
    9        943.292910230000        -9.770882173819
   10        429.207243310000       -17.092827668199
   11        202.407208400000       -17.149892176755
   12       3260.498552100000         7.760741628445
   13       1011.106971600000         7.955893578798
   14        392.443592730000        24.868574233031
   15        173.217021320000        10.281432831816
   16         96.619988467000         1.620869283256
   17         38.158284867000        -1.533729723557
   18         18.959517570000         1.320348001895
   19          9.250599619900        -0.860761983522
   20          4.348651762100         0.480413874809
   21          2.038032420900        -0.220711476153
   22          0.691101525400         0.100552605439
   23          0.335060651400        -0.058565072549
   24          0.140744411200         0.014775145383
 P 20
    1      28609.335767000000         0.000637647097
    2       6773.123636400000         0.003022024195
    3       2199.801107900000         0.013975465840
    4        841.502015900000         0.054685979614
    5        356.921102880000         0.180453779583
    6        162.711743510000         0.479197327637
    7         78.004264994000         0.957513287774
    8         38.682579997000         1.292780884705
    9         19.589158685000         0.955865678752
   10          9.799086341700         0.265846996566
   11        261.377868690000        -0.127078849736
   12        100.099321460000        -0.381257557152
   13         44.012139363000        -1.572111423673
   14         10.854010739000        -1.460529615888
   15          5.435193018200         0.938487230701
   16          2.706280554200        -0.641963092543
   17          1.319563340800         0.346727655745
   18          0.580044559700        -0.154079991742
   19          0.243299762600         0.062531935032
   20          0.096823725100        -0.017568719158
 P 20
    1      28609.335767000000         0.000370567386
    2       6773.123636400000         0.001756243556
    3       2199.801107900000         0.008121815129
    4        841.502015900000         0.031780652012
    5        356.921102880000         0.104870367390
    6        162.711743510000         0.278484606517
    7         78.004264994000         0.556457008004
    8         38.682579997000         0.751297127980
    9         19.589158685000         0.555499503186
   10          9.799086341700         0.154496471417
   11        261.377868690000        -0.070824211050
   12        100.099321460000        -0.145580561569
   13         44.012139363000        -1.151855968380
   14         10.854010739000        -2.047615507039
   15          5.435193018200         0.919723396404
   16          2.706280554200        -0.729658282589
   17          1.319563340800         0.398558345811
   18          0.580044559700        -0.177545228286
   19          0.243299762600         0.071758022517
   20          0.096823725100        -0.020036641949
 P 20
    1      28609.335767000000         0.000244193349
    2       6773.123636400000         0.001157314464
    3       2199.801107900000         0.005352044762
    4        841.502015900000         0.020942544176
    5        356.921102880000         0.069106584123
    6        162.711743510000         0.183513421057
    7         78.004264994000         0.366689313594
    8         38.682579997000         0.495083401236
    9         19.589158685000         0.366058345200
   10          9.799086341700         0.101808772720
   11        261.377868690000        -0.049352155314
   12        100.099321460000        -0.074466570297
   13         44.012139363000        -0.861713889020
   14         10.854010739000        -1.979370975908
   15          5.435193018200         1.863335357178
   16          2.706280554200        -0.084853485719
   17          1.319563340800         0.339528808869
   18          0.580044559700        -0.152094504968
   19          0.243299762600         0.061382604857
   20          0.096823725100        -0.016997763935
 P 20
    1      28609.335767000000         0.000181968900
    2       6773.123636400000         0.000862411859
    3       2199.801107900000         0.003988256446
    4        841.502015900000         0.015606042276
    5        356.921102880000         0.051497099126
    6        162.711743510000         0.136751207645
    7         78.004264994000         0.273250894542
    8         38.682579997000         0.368928074109
    9         19.589158685000         0.272780707188
   10          9.799086341700         0.075866236584
   11        261.377868690000        -0.040905588305
   12        100.099321460000        -0.056362772314
   13         44.012139363000        -0.674819072804
   14         10.854010739000        -1.775270143503
   15          5.435193018200         2.745202658032
   16          2.706280554200        -0.930341484760
   17          1.319563340800        -0.896865051904
   18          0.580044559700        -0.005195954884
   19          0.243299762600         0.007686709090
   20          0.096823725100        -0.002681876025
 P 20
    1      28609.335767000000         0.000151101902
    2       6773.123636400000         0.000716122765
    3       2199.801107900000         0.003311736968
    4        841.502015900000         0.012958822438
    5        356.921102880000         0.042761755471
    6        162.711743510000         0.113554390460
    7         78.004264994000         0.226899925103
    8         38.682579997000         0.306347587715
    9         19.589158685000         0.226509494633
   10          9.799086341700         0.062997207851
   11        261.377868690000        -0.038471256455
   12        100.099321460000        -0.056013018689
   13         44.012139363000        -0.564616213034
   14         10.854010739000        -1.641222908863
   15          5.435193018200         3.461971774933
   16          2.706280554200        -3.094179590346
   17          1.319563340800         0.272460299835
   18          0.580044559700         1.363270863656
   19          0.243299762600        -0.247075514001
   20          0.096823725100         0.056134316803
 P 20
    1      28609.335767000000         0.000142157668
    2       6773.123636400000         0.000673733033
    3       2199.801107900000         0.003115704037
    4        841.502015900000         0.012191745834
    5        356.921102880000         0.040230542287
    6        162.711743510000         0.106832721365
    7         78.004264994000         0.213468949797
    8         38.682579997000         0.288213836089
    9         19.589158685000         0.213101630229
   10          9.799086341700         0.059268189683
   11        261.377868690000        -0.039092407753
   12        100.099321460000        -0.059640451746
   13         44.012139363000        -0.530747622635
   14         10.854010739000        -1.651994198807
   15          5.435193018200         4.187805419861
   16          2.706280554200        -5.665852275130
   17          1.319563340800         4.199643602734
   18          0.580044559700        -1.069598421496
   19          0.243299762600        -0.823061977687
   20          0.096823725100         0.153359443381
 P 20
    1      28609.335767000000         0.000109212870
    2       6773.123636400000         0.000517596548
    3       2199.801107900000         0.002393644925
    4        841.502015900000         0.009366329471
    5        356.921102880000         0.030907182532
    6        162.711743510000         0.082074419879
    7         78.004264994000         0.163997883727
    8         38.682579997000         0.221420769739
    9         19.589158685000         0.163715689844
   10          9.799086341700         0.045532887521
   11        261.377868690000        -0.029848689740
   12        100.099321460000        -0.044184686075
   13         44.012139363000        -0.413644082982
   14         10.854010739000        -1.319231405410
   15          5.435193018200         3.651896582732
   16          2.706280554200        -5.813007959850
   17          1.319563340800         6.090185306011
   18          0.580044559700        -4.768024679019
   19          0.243299762600         2.500938472072
   20          0.096823725100        -0.158040802933
 P 20
    1      28609.335767000000        -0.000038305934
    2       6773.123636400000        -0.000181544715
    3       2199.801107900000        -0.000839560438
    4        841.502015900000        -0.003285198901
    5        356.921102880000        -0.010840558449
    6        162.711743510000        -0.028787242091
    7         78.004264994000        -0.057521537017
    8         38.682579997000        -0.077662361937
    9         19.589158685000        -0.057422558752
   10          9.799086341700        -0.015970460200
   11        261.377868690000         0.009610042412
   12        100.099321460000         0.012277584608
   13         44.012139363000         0.150625564284
   14         10.854010739000         0.477461842432
   15          5.435193018200        -1.397082859175
   16          2.706280554200         2.416488203445
   17          1.319563340800        -2.940883477456
   18          0.580044559700         3.151299223390
   19          0.243299762600        -3.173300908020
   20          0.096823725100         2.091141337737
 P 20
    1      28609.335767000000        -0.000383098021
    2       6773.123636400000        -0.001815630455
    3       2199.801107900000        -0.008396452102
    4        841.502015900000        -0.032855306128
    5        356.921102880000        -0.108416530379
    6        162.711743510000        -0.287901487846
    7         78.004264994000        -0.575273450588
    8         38.682579997000        -0.776702036300
    9         19.589158685000        -0.574283568005
   10          9.799086341700        -0.159720727634
   11        261.377868690000        -0.027558861383
   12        100.099321460000        -0.717772474178
   13         44.012139363000         3.579943012521
   14         10.854010739000        -2.813225497271
   15          5.435193018200         4.552731546119
   16          2.706280554200        -3.786630844781
   17          1.319563340800         2.231515945526
   18          0.580044559700        -1.041795913846
   19          0.243299762600         0.437368382653
   20          0.096823725100        -0.126205750639
 P 20
    1      28609.335767000000        -0.003586454524
    2       6773.123636400000        -0.016997415023
    3       2199.801107900000        -0.078605192325
    4        841.502015900000        -0.307582015099
    5        356.921102880000        -1.014964668235
    6        162.711743510000        -2.695251702616
    7         78.004264994000        -5.385546142074
    8         38.682579997000        -7.271263172080
    9         19.589158685000        -5.376279143355
   10          9.799086341700        -1.495259945755
   11        261.377868690000         1.597967229950
   12        100.099321460000         5.927908437538
   13         44.012139363000        10.002419079819
   14         10.854010739000         9.371349024149
   15          5.435193018200        -6.266481327424
   16          2.706280554200         4.229608670638
   17          1.319563340800        -2.262526950986
   18          0.580044559700         1.003361528373
   19          0.243299762600        -0.409219149282
   20          0.096823725100         0.115844707998
 P 20
    1      28609.335767000000        -0.005436922689
    2       6773.123636400000        -0.025767406439
    3       2199.801107900000        -0.119162351223
    4        841.502015900000        -0.466282124997
    5        356.921102880000        -1.538646146618
    6        162.711743510000        -4.085894589423
    7         78.004264994000        -8.164274164684
    8         38.682579997000       -11.022946326029
    9         19.589158685000        -8.150225762492
   10          9.799086341700        -2.266754721354
   11        261.377868690000         5.700321074304
   12        100.099321460000         3.097887343402
   13         44.012139363000        19.383026784166
   14         10.854010739000        11.255980574461
   15          5.435193018200        -6.125332053649
   16          2.706280554200         3.931414748428
   17          1.319563340800        -2.054815362230
   18          0.580044559700         0.900347812511
   19          0.243299762600        -0.364754386084
   20          0.096823725100         0.102806975209
 D 10
    1        665.350573860000         0.000893467202
    2        200.179953660000         0.007647225109
    3         77.545085570000         0.038169023405
    4         33.677854345000         0.127082444407
    5         15.624928334000         0.293489052328
    6          7.442786742300         0.454059560928
    7          3.533607353500         0.473719533162
    8          1.636372514200        -0.470140716192
    9          0.678456847300         0.249356591548
   10          0.270000000000        -0.082782599034
 D 10
    1        665.350573860000         0.000301896589
    2        200.179953660000         0.002583946194
    3         77.545085570000         0.012897057608
    4         33.677854345000         0.042940307618
    5         15.624928334000         0.099167986958
    6          7.442786742300         0.153423687388
    7          3.533607353500         0.160066660455
    8          1.636372514200        -1.450219406238
    9          0.678456847300         0.488771616063
   10          0.270000000000        -0.149523446035
 D 10
    1        665.350573860000         0.000130405233
    2        200.179953660000         0.001116144132
    3         77.545085570000         0.005570926827
    4         33.677854345000         0.018548208353
    5         15.624928334000         0.042835941008
    6          7.442786742300         0.066271870831
    7          3.533607353500         0.069141325089
    8          1.636372514200        -1.063226218559
    9          0.678456847300         1.734225447693
   10          0.270000000000        -0.285287729367
 D 10
    1        665.350573860000         0.000055608899
    2        200.179953660000         0.000475959011
    3         77.545085570000         0.002375618656
    4         33.677854345000         0.007909540221
    5         15.624928334000         0.018266594373
    6          7.442786742300         0.028260412969
    7          3.533607353500         0.029484038638
    8          1.636372514200        -0.531250308766
    9          0.678456847300         1.348527163302
   10          0.270000000000        -1.542661195006
 F 4
    1         14.180116992000         0.561284937002
    2          4.539318368000         0.593735454436
    3          0.413000000000         0.003356585315
    4          0.955700000000        -0.002638196033
 F 4
    1         14.180116992000         0.683463355793
    2          4.539318368000        -0.506834147535
    3          0.413000000000         0.230866664299
    4          0.955700000000        -0.802588862354
 F 4
    1         14.180116992000         0.716748048741
    2          4.539318368000        -0.878000686907
    3          0.413000000000         0.096518427166
    4          0.955700000000         0.768068766505
 F 4
    1         14.180116992000         0.258402070198
    2          4.539318368000        -0.389099992949
    3          0.413000000000        -1.368849527463
    4          0.955700000000         0.947854683962
 G 1
    1          0.739500000000         1.000000000000
 end
  // -----------------------------------------------
  // The basis set
  // -----------------------------------------------
  BAS[ATNO] = new BFNGauss[NSH];
  // Basis function   1 L = s
  InitBFNGauss(BAS[ATNO][  0]);
  BAS[ATNO][  0].l  = 0;
  BAS[ATNO][  0].ng = 24;
  BAS[ATNO][  0].a[  0] =  11713823.007999999449;     BAS[ATNO][  0].d[  0] =        -0.000783901676;
  BAS[ATNO][  0].a[  1] =   1755253.397899999982;     BAS[ATNO][  0].d[  1] =        -0.002806142842;
  BAS[ATNO][  0].a[  2] =    399717.419240000017;     BAS[ATNO][  0].d[  2] =        -0.009138257731;
  BAS[ATNO][  0].a[  3] =    113285.792600000001;     BAS[ATNO][  0].d[  3] =        -0.028489035934;
  BAS[ATNO][  0].a[  4] =     36977.205292999999;     BAS[ATNO][  0].d[  4] =        -0.085236623719;
  BAS[ATNO][  0].a[  5] =     13355.036580000000;     BAS[ATNO][  0].d[  5] =        -0.242948284272;
  BAS[ATNO][  0].a[  6] =      5210.901298800000;     BAS[ATNO][  0].d[  6] =        -0.645765765211;
  BAS[ATNO][  0].a[  7] =      2162.113702000000;     BAS[ATNO][  0].d[  7] =        -1.559543299266;
  BAS[ATNO][  0].a[  8] =       943.292910230000;     BAS[ATNO][  0].d[  8] =        -3.142930078835;
  BAS[ATNO][  0].a[  9] =       429.207243310000;     BAS[ATNO][  0].d[  9] =        -5.498128137772;
  BAS[ATNO][  0].a[ 10] =       202.407208400000;     BAS[ATNO][  0].d[ 10] =        -5.516483671815;
  BAS[ATNO][  0].a[ 11] =      3260.498552100000;     BAS[ATNO][  0].d[ 11] =         1.297041986257;
  BAS[ATNO][  0].a[ 12] =      1011.106971600000;     BAS[ATNO][  0].d[ 12] =         3.378870826967;
  BAS[ATNO][  0].a[ 13] =       392.443592730000;     BAS[ATNO][  0].d[ 13] =         6.540991273920;
  BAS[ATNO][  0].a[ 14] =       173.217021320000;     BAS[ATNO][  0].d[ 14] =         4.767497508699;
  BAS[ATNO][  0].a[ 15] =        96.619988467000;     BAS[ATNO][  0].d[ 15] =        -0.593251965957;
  BAS[ATNO][  0].a[ 16] =        38.158284867000;     BAS[ATNO][  0].d[ 16] =         0.135136471954;
  BAS[ATNO][  0].a[ 17] =        18.959517570000;     BAS[ATNO][  0].d[ 17] =        -0.080991291480;
  BAS[ATNO][  0].a[ 18] =         9.250599619900;     BAS[ATNO][  0].d[ 18] =         0.044208870537;
  BAS[ATNO][  0].a[ 19] =         4.348651762100;     BAS[ATNO][  0].d[ 19] =        -0.022620628935;
  BAS[ATNO][  0].a[ 20] =         2.038032420900;     BAS[ATNO][  0].d[ 20] =         0.009990099426;
  BAS[ATNO][  0].a[ 21] =         0.691101525400;     BAS[ATNO][  0].d[ 21] =        -0.004449894023;
  BAS[ATNO][  0].a[ 22] =         0.335060651400;     BAS[ATNO][  0].d[ 22] =         0.002575931561;
  BAS[ATNO][  0].a[ 23] =         0.140744411200;     BAS[ATNO][  0].d[ 23] =        -0.000647551131;

  // Basis function   2 L = s
  InitBFNGauss(BAS[ATNO][  1]);
  BAS[ATNO][  1].l  = 0;
  BAS[ATNO][  1].ng = 24;
  BAS[ATNO][  1].a[  0] =  11713823.007999999449;     BAS[ATNO][  1].d[  0] =        -0.000301254948;
  BAS[ATNO][  1].a[  1] =   1755253.397899999982;     BAS[ATNO][  1].d[  1] =        -0.001078406185;
  BAS[ATNO][  1].a[  2] =    399717.419240000017;     BAS[ATNO][  1].d[  2] =        -0.003511850328;
  BAS[ATNO][  1].a[  3] =    113285.792600000001;     BAS[ATNO][  1].d[  3] =        -0.010948392258;
  BAS[ATNO][  1].a[  4] =     36977.205292999999;     BAS[ATNO][  1].d[  4] =        -0.032756601290;
  BAS[ATNO][  1].a[  5] =     13355.036580000000;     BAS[ATNO][  1].d[  5] =        -0.093365501057;
  BAS[ATNO][  1].a[  6] =      5210.901298800000;     BAS[ATNO][  1].d[  6] =        -0.248169047233;
  BAS[ATNO][  1].a[  7] =      2162.113702000000;     BAS[ATNO][  1].d[  7] =        -0.599335541690;
  BAS[ATNO][  1].a[  8] =       943.292910230000;     BAS[ATNO][  1].d[  8] =        -1.207834179518;
  BAS[ATNO][  1].a[  9] =       429.207243310000;     BAS[ATNO][  1].d[  9] =        -2.112941402322;
  BAS[ATNO][  1].a[ 10] =       202.407208400000;     BAS[ATNO][  1].d[ 10] =        -2.119995469973;
  BAS[ATNO][  1].a[ 11] =      3260.498552100000;     BAS[ATNO][  1].d[ 11] =         0.486940650088;
  BAS[ATNO][  1].a[ 12] =      1011.106971600000;     BAS[ATNO][  1].d[ 12] =         1.282174679521;
  BAS[ATNO][  1].a[ 13] =       392.443592730000;     BAS[ATNO][  1].d[ 13] =         2.606969795673;
  BAS[ATNO][  1].a[ 14] =       173.217021320000;     BAS[ATNO][  1].d[ 14] =         2.048430293363;
  BAS[ATNO][  1].a[ 15] =        96.619988467000;     BAS[ATNO][  1].d[ 15] =         0.276632783490;
  BAS[ATNO][  1].a[ 16] =        38.158284867000;     BAS[ATNO][  1].d[ 16] =         0.436831736545;
  BAS[ATNO][  1].a[ 17] =        18.959517570000;     BAS[ATNO][  1].d[ 17] =        -0.106048624744;
  BAS[ATNO][  1].a[ 18] =         9.250599619900;     BAS[ATNO][  1].d[ 18] =         0.072311061580;
  BAS[ATNO][  1].a[ 19] =         4.348651762100;     BAS[ATNO][  1].d[ 19] =        -0.039001075471;
  BAS[ATNO][  1].a[ 20] =         2.038032420900;     BAS[ATNO][  1].d[ 20] =         0.017728025998;
  BAS[ATNO][  1].a[ 21] =         0.691101525400;     BAS[ATNO][  1].d[ 21] =        -0.008023730058;
  BAS[ATNO][  1].a[ 22] =         0.335060651400;     BAS[ATNO][  1].d[ 22] =         0.004657524235;
  BAS[ATNO][  1].a[ 23] =         0.140744411200;     BAS[ATNO][  1].d[ 23] =        -0.001171198202;

  // Basis function   3 L = s
  InitBFNGauss(BAS[ATNO][  2]);
  BAS[ATNO][  2].l  = 0;
  BAS[ATNO][  2].ng = 24;
  BAS[ATNO][  2].a[  0] =  11713823.007999999449;     BAS[ATNO][  2].d[  0] =        -0.000149038411;
  BAS[ATNO][  2].a[  1] =   1755253.397899999982;     BAS[ATNO][  2].d[  1] =        -0.000533514702;
  BAS[ATNO][  2].a[  2] =    399717.419240000017;     BAS[ATNO][  2].d[  2] =        -0.001737400811;
  BAS[ATNO][  2].a[  3] =    113285.792600000001;     BAS[ATNO][  2].d[  3] =        -0.005416445410;
  BAS[ATNO][  2].a[  4] =     36977.205292999999;     BAS[ATNO][  2].d[  4] =        -0.016205515706;
  BAS[ATNO][  2].a[  5] =     13355.036580000000;     BAS[ATNO][  2].d[  5] =        -0.046190264990;
  BAS[ATNO][  2].a[  6] =      5210.901298800000;     BAS[ATNO][  2].d[  6] =        -0.122775478354;
  BAS[ATNO][  2].a[  7] =      2162.113702000000;     BAS[ATNO][  2].d[  7] =        -0.296506388069;
  BAS[ATNO][  2].a[  8] =       943.292910230000;     BAS[ATNO][  2].d[  8] =        -0.597545990591;
  BAS[ATNO][  2].a[  9] =       429.207243310000;     BAS[ATNO][  2].d[  9] =        -1.045325330844;
  BAS[ATNO][  2].a[ 10] =       202.407208400000;     BAS[ATNO][  2].d[ 10] =        -1.048815155784;
  BAS[ATNO][  2].a[ 11] =      3260.498552100000;     BAS[ATNO][  2].d[ 11] =         0.240401547245;
  BAS[ATNO][  2].a[ 12] =      1011.106971600000;     BAS[ATNO][  2].d[ 12] =         0.633172503809;
  BAS[ATNO][  2].a[ 13] =       392.443592730000;     BAS[ATNO][  2].d[ 13] =         1.312651902150;
  BAS[ATNO][  2].a[ 14] =       173.217021320000;     BAS[ATNO][  2].d[ 14] =         1.060654134096;
  BAS[ATNO][  2].a[ 15] =        96.619988467000;     BAS[ATNO][  2].d[ 15] =         0.368824508555;
  BAS[ATNO][  2].a[ 16] =        38.158284867000;     BAS[ATNO][  2].d[ 16] =         0.336312612768;
  BAS[ATNO][  2].a[ 17] =        18.959517570000;     BAS[ATNO][  2].d[ 17] =        -0.936091438373;
  BAS[ATNO][  2].a[ 18] =         9.250599619900;     BAS[ATNO][  2].d[ 18] =        -0.435403611768;
  BAS[ATNO][  2].a[ 19] =         4.348651762100;     BAS[ATNO][  2].d[ 19] =        -0.030608208438;
  BAS[ATNO][  2].a[ 20] =         2.038032420900;     BAS[ATNO][  2].d[ 20] =         0.009676192320;
  BAS[ATNO][  2].a[ 21] =         0.691101525400;     BAS[ATNO][  2].d[ 21] =        -0.004650248935;
  BAS[ATNO][  2].a[ 22] =         0.335060651400;     BAS[ATNO][  2].d[ 22] =         0.002740719582;
  BAS[ATNO][  2].a[ 23] =         0.140744411200;     BAS[ATNO][  2].d[ 23] =        -0.000693010236;

  // Basis function   4 L = s
  InitBFNGauss(BAS[ATNO][  3]);
  BAS[ATNO][  3].l  = 0;
  BAS[ATNO][  3].ng = 24;
  BAS[ATNO][  3].a[  0] =  11713823.007999999449;     BAS[ATNO][  3].d[  0] =        -0.000090352473;
  BAS[ATNO][  3].a[  1] =   1755253.397899999982;     BAS[ATNO][  3].d[  1] =        -0.000323435901;
  BAS[ATNO][  3].a[  2] =    399717.419240000017;     BAS[ATNO][  3].d[  2] =        -0.001053275187;
  BAS[ATNO][  3].a[  3] =    113285.792600000001;     BAS[ATNO][  3].d[  3] =        -0.003283645037;
  BAS[ATNO][  3].a[  4] =     36977.205292999999;     BAS[ATNO][  3].d[  4] =        -0.009824369527;
  BAS[ATNO][  3].a[  5] =     13355.036580000000;     BAS[ATNO][  3].d[  5] =        -0.028002208633;
  BAS[ATNO][  3].a[  6] =      5210.901298800000;     BAS[ATNO][  3].d[  6] =        -0.074430933891;
  BAS[ATNO][  3].a[  7] =      2162.113702000000;     BAS[ATNO][  3].d[  7] =        -0.179752892552;
  BAS[ATNO][  3].a[  8] =       943.292910230000;     BAS[ATNO][  3].d[  8] =        -0.362253983602;
  BAS[ATNO][  3].a[  9] =       429.207243310000;     BAS[ATNO][  3].d[  9] =        -0.633714008999;
  BAS[ATNO][  3].a[ 10] =       202.407208400000;     BAS[ATNO][  3].d[ 10] =        -0.635829667051;
  BAS[ATNO][  3].a[ 11] =      3260.498552100000;     BAS[ATNO][  3].d[ 11] =         0.145584854222;
  BAS[ATNO][  3].a[ 12] =      1011.106971600000;     BAS[ATNO][  3].d[ 12] =         0.384108094914;
  BAS[ATNO][  3].a[ 13] =       392.443592730000;     BAS[ATNO][  3].d[ 13] =         0.798498534378;
  BAS[ATNO][  3].a[ 14] =       173.217021320000;     BAS[ATNO][  3].d[ 14] =         0.662244058659;
  BAS[ATNO][  3].a[ 15] =        96.619988467000;     BAS[ATNO][  3].d[ 15] =         0.269412717758;
  BAS[ATNO][  3].a[ 16] =        38.158284867000;     BAS[ATNO][  3].d[ 16] =         0.276464280006;
  BAS[ATNO][  3].a[ 17] =        18.959517570000;     BAS[ATNO][  3].d[ 17] =        -1.443056865928;
  BAS[ATNO][  3].a[ 18] =         9.250599619900;     BAS[ATNO][  3].d[ 18] =        -0.272309251217;
  BAS[ATNO][  3].a[ 19] =         4.348651762100;     BAS[ATNO][  3].d[ 19] =         1.520008634883;
  BAS[ATNO][  3].a[ 20] =         2.038032420900;     BAS[ATNO][  3].d[ 20] =         0.051591284679;
  BAS[ATNO][  3].a[ 21] =         0.691101525400;     BAS[ATNO][  3].d[ 21] =         0.015208212047;
  BAS[ATNO][  3].a[ 22] =         0.335060651400;     BAS[ATNO][  3].d[ 22] =        -0.009610883248;
  BAS[ATNO][  3].a[ 23] =         0.140744411200;     BAS[ATNO][  3].d[ 23] =         0.002464423948;

  // Basis function   5 L = s
  InitBFNGauss(BAS[ATNO][  4]);
  BAS[ATNO][  4].l  = 0;
  BAS[ATNO][  4].ng = 24;
  BAS[ATNO][  4].a[  0] =  11713823.007999999449;     BAS[ATNO][  4].d[  0] =        -0.000061601011;
  BAS[ATNO][  4].a[  1] =   1755253.397899999982;     BAS[ATNO][  4].d[  1] =        -0.000220513925;
  BAS[ATNO][  4].a[  2] =    399717.419240000017;     BAS[ATNO][  4].d[  2] =        -0.000718107806;
  BAS[ATNO][  4].a[  3] =    113285.792600000001;     BAS[ATNO][  4].d[  3] =        -0.002238741747;
  BAS[ATNO][  4].a[  4] =     36977.205292999999;     BAS[ATNO][  4].d[  4] =        -0.006698113209;
  BAS[ATNO][  4].a[  5] =     13355.036580000000;     BAS[ATNO][  4].d[  5] =        -0.019091501295;
  BAS[ATNO][  4].a[  6] =      5210.901298800000;     BAS[ATNO][  4].d[  6] =        -0.050745935415;
  BAS[ATNO][  4].a[  7] =      2162.113702000000;     BAS[ATNO][  4].d[  7] =        -0.122552925232;
  BAS[ATNO][  4].a[  8] =       943.292910230000;     BAS[ATNO][  4].d[  8] =        -0.246979532496;
  BAS[ATNO][  4].a[  9] =       429.207243310000;     BAS[ATNO][  4].d[  9] =        -0.432057055999;
  BAS[ATNO][  4].a[ 10] =       202.407208400000;     BAS[ATNO][  4].d[ 10] =        -0.433499481093;
  BAS[ATNO][  4].a[ 11] =      3260.498552100000;     BAS[ATNO][  4].d[ 11] =         0.099137017881;
  BAS[ATNO][  4].a[ 12] =      1011.106971600000;     BAS[ATNO][  4].d[ 12] =         0.262385721858;
  BAS[ATNO][  4].a[ 13] =       392.443592730000;     BAS[ATNO][  4].d[ 13] =         0.543144324935;
  BAS[ATNO][  4].a[ 14] =       173.217021320000;     BAS[ATNO][  4].d[ 14] =         0.465950342657;
  BAS[ATNO][  4].a[ 15] =        96.619988467000;     BAS[ATNO][  4].d[ 15] =         0.181569636673;
  BAS[ATNO][  4].a[ 16] =        38.158284867000;     BAS[ATNO][  4].d[ 16] =         0.260652289404;
  BAS[ATNO][  4].a[ 17] =        18.959517570000;     BAS[ATNO][  4].d[ 17] =        -1.564730769217;
  BAS[ATNO][  4].a[ 18] =         9.250599619900;     BAS[ATNO][  4].d[ 18] =         0.242650052252;
  BAS[ATNO][  4].a[ 19] =         4.348651762100;     BAS[ATNO][  4].d[ 19] =         3.008638363507;
  BAS[ATNO][  4].a[ 20] =         2.038032420900;     BAS[ATNO][  4].d[ 20] =        -2.562755050370;
  BAS[ATNO][  4].a[ 21] =         0.691101525400;     BAS[ATNO][  4].d[ 21] =        -0.085740603875;
  BAS[ATNO][  4].a[ 22] =         0.335060651400;     BAS[ATNO][  4].d[ 22] =         0.010301407135;
  BAS[ATNO][  4].a[ 23] =         0.140744411200;     BAS[ATNO][  4].d[ 23] =        -0.000071079562;

  // Basis function   6 L = s
  InitBFNGauss(BAS[ATNO][  5]);
  BAS[ATNO][  5].l  = 0;
  BAS[ATNO][  5].ng = 24;
  BAS[ATNO][  5].a[  0] =  11713823.007999999449;     BAS[ATNO][  5].d[  0] =         0.000043564979;
  BAS[ATNO][  5].a[  1] =   1755253.397899999982;     BAS[ATNO][  5].d[  1] =         0.000155950110;
  BAS[ATNO][  5].a[  2] =    399717.419240000017;     BAS[ATNO][  5].d[  2] =         0.000507854511;
  BAS[ATNO][  5].a[  3] =    113285.792600000001;     BAS[ATNO][  5].d[  3] =         0.001583265194;
  BAS[ATNO][  5].a[  4] =     36977.205292999999;     BAS[ATNO][  5].d[  4] =         0.004736986535;
  BAS[ATNO][  5].a[  5] =     13355.036580000000;     BAS[ATNO][  5].d[  5] =         0.013501740226;
  BAS[ATNO][  5].a[  6] =      5210.901298800000;     BAS[ATNO][  5].d[  6] =         0.035888138231;
  BAS[ATNO][  5].a[  7] =      2162.113702000000;     BAS[ATNO][  5].d[  7] =         0.086670908425;
  BAS[ATNO][  5].a[  8] =       943.292910230000;     BAS[ATNO][  5].d[  8] =         0.174666907406;
  BAS[ATNO][  5].a[  9] =       429.207243310000;     BAS[ATNO][  5].d[  9] =         0.305555966649;
  BAS[ATNO][  5].a[ 10] =       202.407208400000;     BAS[ATNO][  5].d[ 10] =         0.306576067092;
  BAS[ATNO][  5].a[ 11] =      3260.498552100000;     BAS[ATNO][  5].d[ 11] =        -0.069873741178;
  BAS[ATNO][  5].a[ 12] =      1011.106971600000;     BAS[ATNO][  5].d[ 12] =        -0.186816550833;
  BAS[ATNO][  5].a[ 13] =       392.443592730000;     BAS[ATNO][  5].d[ 13] =        -0.378504410889;
  BAS[ATNO][  5].a[ 14] =       173.217021320000;     BAS[ATNO][  5].d[ 14] =        -0.356275026800;
  BAS[ATNO][  5].a[ 15] =        96.619988467000;     BAS[ATNO][  5].d[ 15] =        -0.085812492344;
  BAS[ATNO][  5].a[ 16] =        38.158284867000;     BAS[ATNO][  5].d[ 16] =        -0.326790928207;
  BAS[ATNO][  5].a[ 17] =        18.959517570000;     BAS[ATNO][  5].d[ 17] =         1.686621602071;
  BAS[ATNO][  5].a[ 18] =         9.250599619900;     BAS[ATNO][  5].d[ 18] =        -1.145652403322;
  BAS[ATNO][  5].a[ 19] =         4.348651762100;     BAS[ATNO][  5].d[ 19] =        -2.339024097086;
  BAS[ATNO][  5].a[ 20] =         2.038032420900;     BAS[ATNO][  5].d[ 20] =         4.427416747955;
  BAS[ATNO][  5].a[ 21] =         0.691101525400;     BAS[ATNO][  5].d[ 21] =        -3.226964249901;
  BAS[ATNO][  5].a[ 22] =         0.335060651400;     BAS[ATNO][  5].d[ 22] =         0.840874533815;
  BAS[ATNO][  5].a[ 23] =         0.140744411200;     BAS[ATNO][  5].d[ 23] =        -0.166946484424;

  // Basis function   7 L = s
  InitBFNGauss(BAS[ATNO][  6]);
  BAS[ATNO][  6].l  = 0;
  BAS[ATNO][  6].ng = 24;
  BAS[ATNO][  6].a[  0] =  11713823.007999999449;     BAS[ATNO][  6].d[  0] =        -0.000029599687;
  BAS[ATNO][  6].a[  1] =   1755253.397899999982;     BAS[ATNO][  6].d[  1] =        -0.000105958377;
  BAS[ATNO][  6].a[  2] =    399717.419240000017;     BAS[ATNO][  6].d[  2] =        -0.000345055477;
  BAS[ATNO][  6].a[  3] =    113285.792600000001;     BAS[ATNO][  6].d[  3] =        -0.001075729987;
  BAS[ATNO][  6].a[  4] =     36977.205292999999;     BAS[ATNO][  6].d[  4] =        -0.003218487013;
  BAS[ATNO][  6].a[  5] =     13355.036580000000;     BAS[ATNO][  6].d[  5] =        -0.009173590690;
  BAS[ATNO][  6].a[  6] =      5210.901298800000;     BAS[ATNO][  6].d[  6] =        -0.024383752407;
  BAS[ATNO][  6].a[  7] =      2162.113702000000;     BAS[ATNO][  6].d[  7] =        -0.058887478596;
  BAS[ATNO][  6].a[  8] =       943.292910230000;     BAS[ATNO][  6].d[  8] =        -0.118675273610;
  BAS[ATNO][  6].a[  9] =       429.207243310000;     BAS[ATNO][  6].d[  9] =        -0.207606228814;
  BAS[ATNO][  6].a[ 10] =       202.407208400000;     BAS[ATNO][  6].d[ 10] =        -0.208299323465;
  BAS[ATNO][  6].a[ 11] =      3260.498552100000;     BAS[ATNO][  6].d[ 11] =         0.047202834021;
[...]
  BAS[ATNO][ 20].a[ 12] =        44.012139363000;     BAS[ATNO][ 20].d[ 12] =        -0.413644082982;
  BAS[ATNO][ 20].a[ 13] =        10.854010739000;     BAS[ATNO][ 20].d[ 13] =        -1.319231405410;
  BAS[ATNO][ 20].a[ 14] =         5.435193018200;     BAS[ATNO][ 20].d[ 14] =         3.651896582732;
  BAS[ATNO][ 20].a[ 15] =         2.706280554200;     BAS[ATNO][ 20].d[ 15] =        -5.813007959850;
  BAS[ATNO][ 20].a[ 16] =         1.319563340800;     BAS[ATNO][ 20].d[ 16] =         6.090185306011;
  BAS[ATNO][ 20].a[ 17] =         0.580044559700;     BAS[ATNO][ 20].d[ 17] =        -4.768024679019;
  BAS[ATNO][ 20].a[ 18] =         0.243299762600;     BAS[ATNO][ 20].d[ 18] =         2.500938472072;
  BAS[ATNO][ 20].a[ 19] =         0.096823725100;     BAS[ATNO][ 20].d[ 19] =        -0.158040802933;

  // Basis function  22 L = p
  InitBFNGauss(BAS[ATNO][ 21]);
  BAS[ATNO][ 21].l  = 1;
  BAS[ATNO][ 21].ng = 20;
  BAS[ATNO][ 21].a[  0] =     28609.335767000000;     BAS[ATNO][ 21].d[  0] =         0.000038305934;
  BAS[ATNO][ 21].a[  1] =      6773.123636400000;     BAS[ATNO][ 21].d[  1] =         0.000181544715;
  BAS[ATNO][ 21].a[  2] =      2199.801107900000;     BAS[ATNO][ 21].d[  2] =         0.000839560438;
  BAS[ATNO][ 21].a[  3] =       841.502015900000;     BAS[ATNO][ 21].d[  3] =         0.003285198901;
  BAS[ATNO][ 21].a[  4] =       356.921102880000;     BAS[ATNO][ 21].d[  4] =         0.010840558449;
  BAS[ATNO][ 21].a[  5] =       162.711743510000;     BAS[ATNO][ 21].d[  5] =         0.028787242091;
  BAS[ATNO][ 21].a[  6] =        78.004264994000;     BAS[ATNO][ 21].d[  6] =         0.057521537017;
  BAS[ATNO][ 21].a[  7] =        38.682579997000;     BAS[ATNO][ 21].d[  7] =         0.077662361937;
  BAS[ATNO][ 21].a[  8] =        19.589158685000;     BAS[ATNO][ 21].d[  8] =         0.057422558752;
  BAS[ATNO][ 21].a[  9] =         9.799086341700;     BAS[ATNO][ 21].d[  9] =         0.015970460200;
  BAS[ATNO][ 21].a[ 10] =       261.377868690000;     BAS[ATNO][ 21].d[ 10] =        -0.009610042412;
  BAS[ATNO][ 21].a[ 11] =       100.099321460000;     BAS[ATNO][ 21].d[ 11] =        -0.012277584608;
  BAS[ATNO][ 21].a[ 12] =        44.012139363000;     BAS[ATNO][ 21].d[ 12] =        -0.150625564284;
  BAS[ATNO][ 21].a[ 13] =        10.854010739000;     BAS[ATNO][ 21].d[ 13] =        -0.477461842432;
  BAS[ATNO][ 21].a[ 14] =         5.435193018200;     BAS[ATNO][ 21].d[ 14] =         1.397082859175;
  BAS[ATNO][ 21].a[ 15] =         2.706280554200;     BAS[ATNO][ 21].d[ 15] =        -2.416488203445;
  BAS[ATNO][ 21].a[ 16] =         1.319563340800;     BAS[ATNO][ 21].d[ 16] =         2.940883477456;
  BAS[ATNO][ 21].a[ 17] =         0.580044559700;     BAS[ATNO][ 21].d[ 17] =        -3.151299223390;
  BAS[ATNO][ 21].a[ 18] =         0.243299762600;     BAS[ATNO][ 21].d[ 18] =         3.173300908020;
  BAS[ATNO][ 21].a[ 19] =         0.096823725100;     BAS[ATNO][ 21].d[ 19] =        -2.091141337737;

  // Basis function  23 L = p
  InitBFNGauss(BAS[ATNO][ 22]);
  BAS[ATNO][ 22].l  = 1;
  BAS[ATNO][ 22].ng = 20;
  BAS[ATNO][ 22].a[  0] =     28609.335767000000;     BAS[ATNO][ 22].d[  0] =        -0.000383098021;
  BAS[ATNO][ 22].a[  1] =      6773.123636400000;     BAS[ATNO][ 22].d[  1] =        -0.001815630455;
  BAS[ATNO][ 22].a[  2] =      2199.801107900000;     BAS[ATNO][ 22].d[  2] =        -0.008396452102;
  BAS[ATNO][ 22].a[  3] =       841.502015900000;     BAS[ATNO][ 22].d[  3] =        -0.032855306128;
  BAS[ATNO][ 22].a[  4] =       356.921102880000;     BAS[ATNO][ 22].d[  4] =        -0.108416530379;
  BAS[ATNO][ 22].a[  5] =       162.711743510000;     BAS[ATNO][ 22].d[  5] =        -0.287901487846;
  BAS[ATNO][ 22].a[  6] =        78.004264994000;     BAS[ATNO][ 22].d[  6] =        -0.575273450588;
  BAS[ATNO][ 22].a[  7] =        38.682579997000;     BAS[ATNO][ 22].d[  7] =        -0.776702036300;
  BAS[ATNO][ 22].a[  8] =        19.589158685000;     BAS[ATNO][ 22].d[  8] =        -0.574283568005;
  BAS[ATNO][ 22].a[  9] =         9.799086341700;     BAS[ATNO][ 22].d[  9] =        -0.159720727634;
  BAS[ATNO][ 22].a[ 10] =       261.377868690000;     BAS[ATNO][ 22].d[ 10] =        -0.027558861383;
  BAS[ATNO][ 22].a[ 11] =       100.099321460000;     BAS[ATNO][ 22].d[ 11] =        -0.717772474178;
  BAS[ATNO][ 22].a[ 12] =        44.012139363000;     BAS[ATNO][ 22].d[ 12] =         3.579943012521;
  BAS[ATNO][ 22].a[ 13] =        10.854010739000;     BAS[ATNO][ 22].d[ 13] =        -2.813225497271;
  BAS[ATNO][ 22].a[ 14] =         5.435193018200;     BAS[ATNO][ 22].d[ 14] =         4.552731546119;
  BAS[ATNO][ 22].a[ 15] =         2.706280554200;     BAS[ATNO][ 22].d[ 15] =        -3.786630844781;
  BAS[ATNO][ 22].a[ 16] =         1.319563340800;     BAS[ATNO][ 22].d[ 16] =         2.231515945526;
  BAS[ATNO][ 22].a[ 17] =         0.580044559700;     BAS[ATNO][ 22].d[ 17] =        -1.041795913846;
  BAS[ATNO][ 22].a[ 18] =         0.243299762600;     BAS[ATNO][ 22].d[ 18] =         0.437368382653;
  BAS[ATNO][ 22].a[ 19] =         0.096823725100;     BAS[ATNO][ 22].d[ 19] =        -0.126205750639;

  // Basis function  24 L = p
  InitBFNGauss(BAS[ATNO][ 23]);
  BAS[ATNO][ 23].l  = 1;
  BAS[ATNO][ 23].ng = 20;
  BAS[ATNO][ 23].a[  0] =     28609.335767000000;     BAS[ATNO][ 23].d[  0] =        -0.003586454524;
  BAS[ATNO][ 23].a[  1] =      6773.123636400000;     BAS[ATNO][ 23].d[  1] =        -0.016997415023;
  BAS[ATNO][ 23].a[  2] =      2199.801107900000;     BAS[ATNO][ 23].d[  2] =        -0.078605192325;
  BAS[ATNO][ 23].a[  3] =       841.502015900000;     BAS[ATNO][ 23].d[  3] =        -0.307582015099;
  BAS[ATNO][ 23].a[  4] =       356.921102880000;     BAS[ATNO][ 23].d[  4] =        -1.014964668235;
  BAS[ATNO][ 23].a[  5] =       162.711743510000;     BAS[ATNO][ 23].d[  5] =        -2.695251702616;
  BAS[ATNO][ 23].a[  6] =        78.004264994000;     BAS[ATNO][ 23].d[  6] =        -5.385546142074;
  BAS[ATNO][ 23].a[  7] =        38.682579997000;     BAS[ATNO][ 23].d[  7] =        -7.271263172080;
  BAS[ATNO][ 23].a[  8] =        19.589158685000;     BAS[ATNO][ 23].d[  8] =        -5.376279143355;
  BAS[ATNO][ 23].a[  9] =         9.799086341700;     BAS[ATNO][ 23].d[  9] =        -1.495259945755;
  BAS[ATNO][ 23].a[ 10] =       261.377868690000;     BAS[ATNO][ 23].d[ 10] =         1.597967229950;
  BAS[ATNO][ 23].a[ 11] =       100.099321460000;     BAS[ATNO][ 23].d[ 11] =         5.927908437538;
  BAS[ATNO][ 23].a[ 12] =        44.012139363000;     BAS[ATNO][ 23].d[ 12] =        10.002419079819;
  BAS[ATNO][ 23].a[ 13] =        10.854010739000;     BAS[ATNO][ 23].d[ 13] =         9.371349024149;
  BAS[ATNO][ 23].a[ 14] =         5.435193018200;     BAS[ATNO][ 23].d[ 14] =        -6.266481327424;
  BAS[ATNO][ 23].a[ 15] =         2.706280554200;     BAS[ATNO][ 23].d[ 15] =         4.229608670638;
  BAS[ATNO][ 23].a[ 16] =         1.319563340800;     BAS[ATNO][ 23].d[ 16] =        -2.262526950986;
  BAS[ATNO][ 23].a[ 17] =         0.580044559700;     BAS[ATNO][ 23].d[ 17] =         1.003361528373;
  BAS[ATNO][ 23].a[ 18] =         0.243299762600;     BAS[ATNO][ 23].d[ 18] =        -0.409219149282;
  BAS[ATNO][ 23].a[ 19] =         0.096823725100;     BAS[ATNO][ 23].d[ 19] =         0.115844707998;

  // Basis function  25 L = p
  InitBFNGauss(BAS[ATNO][ 24]);
  BAS[ATNO][ 24].l  = 1;
  BAS[ATNO][ 24].ng = 20;
  BAS[ATNO][ 24].a[  0] =     28609.335767000000;     BAS[ATNO][ 24].d[  0] =        -0.005436922689;
  BAS[ATNO][ 24].a[  1] =      6773.123636400000;     BAS[ATNO][ 24].d[  1] =        -0.025767406439;
  BAS[ATNO][ 24].a[  2] =      2199.801107900000;     BAS[ATNO][ 24].d[  2] =        -0.119162351223;
  BAS[ATNO][ 24].a[  3] =       841.502015900000;     BAS[ATNO][ 24].d[  3] =        -0.466282124997;
  BAS[ATNO][ 24].a[  4] =       356.921102880000;     BAS[ATNO][ 24].d[  4] =        -1.538646146618;
  BAS[ATNO][ 24].a[  5] =       162.711743510000;     BAS[ATNO][ 24].d[  5] =        -4.085894589423;
  BAS[ATNO][ 24].a[  6] =        78.004264994000;     BAS[ATNO][ 24].d[  6] =        -8.164274164684;
  BAS[ATNO][ 24].a[  7] =        38.682579997000;     BAS[ATNO][ 24].d[  7] =       -11.022946326029;
  BAS[ATNO][ 24].a[  8] =        19.589158685000;     BAS[ATNO][ 24].d[  8] =        -8.150225762492;
  BAS[ATNO][ 24].a[  9] =         9.799086341700;     BAS[ATNO][ 24].d[  9] =        -2.266754721354;
  BAS[ATNO][ 24].a[ 10] =       261.377868690000;     BAS[ATNO][ 24].d[ 10] =         5.700321074304;
  BAS[ATNO][ 24].a[ 11] =       100.099321460000;     BAS[ATNO][ 24].d[ 11] =         3.097887343402;
  BAS[ATNO][ 24].a[ 12] =        44.012139363000;     BAS[ATNO][ 24].d[ 12] =        19.383026784166;
  BAS[ATNO][ 24].a[ 13] =        10.854010739000;     BAS[ATNO][ 24].d[ 13] =        11.255980574461;
  BAS[ATNO][ 24].a[ 14] =         5.435193018200;     BAS[ATNO][ 24].d[ 14] =        -6.125332053649;
  BAS[ATNO][ 24].a[ 15] =         2.706280554200;     BAS[ATNO][ 24].d[ 15] =         3.931414748428;
  BAS[ATNO][ 24].a[ 16] =         1.319563340800;     BAS[ATNO][ 24].d[ 16] =        -2.054815362230;
  BAS[ATNO][ 24].a[ 17] =         0.580044559700;     BAS[ATNO][ 24].d[ 17] =         0.900347812511;
  BAS[ATNO][ 24].a[ 18] =         0.243299762600;     BAS[ATNO][ 24].d[ 18] =        -0.364754386084;
  BAS[ATNO][ 24].a[ 19] =         0.096823725100;     BAS[ATNO][ 24].d[ 19] =         0.102806975209;

  // Basis function  26 L = d
  InitBFNGauss(BAS[ATNO][ 25]);
  BAS[ATNO][ 25].l  = 2;
  BAS[ATNO][ 25].ng = 10;
  BAS[ATNO][ 25].a[  0] =       665.350573860000;     BAS[ATNO][ 25].d[  0] =         0.000893467202;
  BAS[ATNO][ 25].a[  1] =       200.179953660000;     BAS[ATNO][ 25].d[  1] =         0.007647225109;
  BAS[ATNO][ 25].a[  2] =        77.545085570000;     BAS[ATNO][ 25].d[  2] =         0.038169023405;
  BAS[ATNO][ 25].a[  3] =        33.677854345000;     BAS[ATNO][ 25].d[  3] =         0.127082444407;
  BAS[ATNO][ 25].a[  4] =        15.624928334000;     BAS[ATNO][ 25].d[  4] =         0.293489052328;
  BAS[ATNO][ 25].a[  5] =         7.442786742300;     BAS[ATNO][ 25].d[  5] =         0.454059560928;
  BAS[ATNO][ 25].a[  6] =         3.533607353500;     BAS[ATNO][ 25].d[  6] =         0.473719533162;
  BAS[ATNO][ 25].a[  7] =         1.636372514200;     BAS[ATNO][ 25].d[  7] =        -0.470140716192;
  BAS[ATNO][ 25].a[  8] =         0.678456847300;     BAS[ATNO][ 25].d[  8] =         0.249356591548;
  BAS[ATNO][ 25].a[  9] =         0.270000000000;     BAS[ATNO][ 25].d[  9] =        -0.082782599034;

  // Basis function  27 L = d
  InitBFNGauss(BAS[ATNO][ 26]);
  BAS[ATNO][ 26].l  = 2;
  BAS[ATNO][ 26].ng = 10;
  BAS[ATNO][ 26].a[  0] =       665.350573860000;     BAS[ATNO][ 26].d[  0] =        -0.000301896589;
  BAS[ATNO][ 26].a[  1] =       200.179953660000;     BAS[ATNO][ 26].d[  1] =        -0.002583946194;
  BAS[ATNO][ 26].a[  2] =        77.545085570000;     BAS[ATNO][ 26].d[  2] =        -0.012897057608;
  BAS[ATNO][ 26].a[  3] =        33.677854345000;     BAS[ATNO][ 26].d[  3] =        -0.042940307618;
  BAS[ATNO][ 26].a[  4] =        15.624928334000;     BAS[ATNO][ 26].d[  4] =        -0.099167986958;
  BAS[ATNO][ 26].a[  5] =         7.442786742300;     BAS[ATNO][ 26].d[  5] =        -0.153423687388;
  BAS[ATNO][ 26].a[  6] =         3.533607353500;     BAS[ATNO][ 26].d[  6] =        -0.160066660455;
  BAS[ATNO][ 26].a[  7] =         1.636372514200;     BAS[ATNO][ 26].d[  7] =         1.450219406238;
  BAS[ATNO][ 26].a[  8] =         0.678456847300;     BAS[ATNO][ 26].d[  8] =        -0.488771616063;
  BAS[ATNO][ 26].a[  9] =         0.270000000000;     BAS[ATNO][ 26].d[  9] =         0.149523446035;

  // Basis function  28 L = d
  InitBFNGauss(BAS[ATNO][ 27]);
  BAS[ATNO][ 27].l  = 2;
  BAS[ATNO][ 27].ng = 10;
  BAS[ATNO][ 27].a[  0] =       665.350573860000;     BAS[ATNO][ 27].d[  0] =         0.000130405233;
  BAS[ATNO][ 27].a[  1] =       200.179953660000;     BAS[ATNO][ 27].d[  1] =         0.001116144132;
  BAS[ATNO][ 27].a[  2] =        77.545085570000;     BAS[ATNO][ 27].d[  2] =         0.005570926827;
  BAS[ATNO][ 27].a[  3] =        33.677854345000;     BAS[ATNO][ 27].d[  3] =         0.018548208353;
  BAS[ATNO][ 27].a[  4] =        15.624928334000;     BAS[ATNO][ 27].d[  4] =         0.042835941008;
  BAS[ATNO][ 27].a[  5] =         7.442786742300;     BAS[ATNO][ 27].d[  5] =         0.066271870831;
  BAS[ATNO][ 27].a[  6] =         3.533607353500;     BAS[ATNO][ 27].d[  6] =         0.069141325089;
  BAS[ATNO][ 27].a[  7] =         1.636372514200;     BAS[ATNO][ 27].d[  7] =        -1.063226218559;
  BAS[ATNO][ 27].a[  8] =         0.678456847300;     BAS[ATNO][ 27].d[  8] =         1.734225447693;
  BAS[ATNO][ 27].a[  9] =         0.270000000000;     BAS[ATNO][ 27].d[  9] =        -0.285287729367;

  // Basis function  29 L = d
  InitBFNGauss(BAS[ATNO][ 28]);
  BAS[ATNO][ 28].l  = 2;
  BAS[ATNO][ 28].ng = 10;
  BAS[ATNO][ 28].a[  0] =       665.350573860000;     BAS[ATNO][ 28].d[  0] =        -0.000055608899;
  BAS[ATNO][ 28].a[  1] =       200.179953660000;     BAS[ATNO][ 28].d[  1] =        -0.000475959011;
  BAS[ATNO][ 28].a[  2] =        77.545085570000;     BAS[ATNO][ 28].d[  2] =        -0.002375618656;
  BAS[ATNO][ 28].a[  3] =        33.677854345000;     BAS[ATNO][ 28].d[  3] =        -0.007909540221;
  BAS[ATNO][ 28].a[  4] =        15.624928334000;     BAS[ATNO][ 28].d[  4] =        -0.018266594373;
  BAS[ATNO][ 28].a[  5] =         7.442786742300;     BAS[ATNO][ 28].d[  5] =        -0.028260412969;
  BAS[ATNO][ 28].a[  6] =         3.533607353500;     BAS[ATNO][ 28].d[  6] =        -0.029484038638;
  BAS[ATNO][ 28].a[  7] =         1.636372514200;     BAS[ATNO][ 28].d[  7] =         0.531250308766;
  BAS[ATNO][ 28].a[  8] =         0.678456847300;     BAS[ATNO][ 28].d[  8] =        -1.348527163302;
  BAS[ATNO][ 28].a[  9] =         0.270000000000;     BAS[ATNO][ 28].d[  9] =         1.542661195006;

  // Basis function  30 L = f
  InitBFNGauss(BAS[ATNO][ 29]);
  BAS[ATNO][ 29].l  = 3;
  BAS[ATNO][ 29].ng = 4;
  BAS[ATNO][ 29].a[  0] =        14.180116992000;     BAS[ATNO][ 29].d[  0] =         0.561284937002;
  BAS[ATNO][ 29].a[  1] =         4.539318368000;     BAS[ATNO][ 29].d[  1] =         0.593735454436;
  BAS[ATNO][ 29].a[  2] =         0.413000000000;     BAS[ATNO][ 29].d[  2] =         0.003356585315;
  BAS[ATNO][ 29].a[  3] =         0.955700000000;     BAS[ATNO][ 29].d[  3] =        -0.002638196033;

  // Basis function  31 L = f
  InitBFNGauss(BAS[ATNO][ 30]);
  BAS[ATNO][ 30].l  = 3;
  BAS[ATNO][ 30].ng = 4;
  BAS[ATNO][ 30].a[  0] =        14.180116992000;     BAS[ATNO][ 30].d[  0] =        -0.683463355793;
  BAS[ATNO][ 30].a[  1] =         4.539318368000;     BAS[ATNO][ 30].d[  1] =         0.506834147535;
  BAS[ATNO][ 30].a[  2] =         0.413000000000;     BAS[ATNO][ 30].d[  2] =        -0.230866664299;
  BAS[ATNO][ 30].a[  3] =         0.955700000000;     BAS[ATNO][ 30].d[  3] =         0.802588862354;

  // Basis function  32 L = f
  InitBFNGauss(BAS[ATNO][ 31]);
  BAS[ATNO][ 31].l  = 3;
  BAS[ATNO][ 31].ng = 4;
  BAS[ATNO][ 31].a[  0] =        14.180116992000;     BAS[ATNO][ 31].d[  0] =        -0.716748048741;
  BAS[ATNO][ 31].a[  1] =         4.539318368000;     BAS[ATNO][ 31].d[  1] =         0.878000686907;
  BAS[ATNO][ 31].a[  2] =         0.413000000000;     BAS[ATNO][ 31].d[  2] =        -0.096518427166;
  BAS[ATNO][ 31].a[  3] =         0.955700000000;     BAS[ATNO][ 31].d[  3] =        -0.768068766505;

  // Basis function  33 L = f
  InitBFNGauss(BAS[ATNO][ 32]);
  BAS[ATNO][ 32].l  = 3;
  BAS[ATNO][ 32].ng = 4;
  BAS[ATNO][ 32].a[  0] =        14.180116992000;     BAS[ATNO][ 32].d[  0] =        -0.258402070198;
  BAS[ATNO][ 32].a[  1] =         4.539318368000;     BAS[ATNO][ 32].d[  1] =         0.389099992949;
  BAS[ATNO][ 32].a[  2] =         0.413000000000;     BAS[ATNO][ 32].d[  2] =         1.368849527463;
  BAS[ATNO][ 32].a[  3] =         0.955700000000;     BAS[ATNO][ 32].d[  3] =        -0.947854683962;

  // Basis function  34 L = g
  InitBFNGauss(BAS[ATNO][ 33]);
  BAS[ATNO][ 33].l  = 4;
  BAS[ATNO][ 33].ng = 1;
  BAS[ATNO][ 33].a[  0] =         0.739500000000;     BAS[ATNO][ 33].d[  0] =         1.000000000000;

-------
TIMINGS
-------

Total SCF time: 0 days 0 hours 0 min 3 sec 

Total time                  ....       3.316 sec
Sum of individual times     ....       3.111 sec  ( 93.8%)

Fock matrix formation       ....       2.324 sec  ( 70.1%)
  XC integration            ....       0.088 sec  (  3.8% of F)
    Basis function eval.    ....       0.013 sec  ( 14.9% of XC)
    Density eval.           ....       0.007 sec  (  8.2% of XC)
    XC-Functional eval.     ....       0.004 sec  (  4.9% of XC)
    XC-Potential eval.      ....       0.014 sec  ( 16.0% of XC)
Diagonalization             ....       0.012 sec  (  0.4%)
Density matrix formation    ....       0.004 sec  (  0.1%)
Population analysis         ....       0.001 sec  (  0.0%)
Initial guess               ....       0.073 sec  (  2.2%)
Orbital Transformation      ....       0.000 sec  (  0.0%)
Orbital Orthonormalization  ....       0.000 sec  (  0.0%)
DIIS solution               ....       0.002 sec  (  0.1%)
SOSCF solution              ....       0.002 sec  (  0.1%)
Grid generation             ....       0.693 sec  ( 20.9%)

-------------------------   --------------------
FINAL SINGLE POINT ENERGY     -2941.870464757907
-------------------------   --------------------


                            ***************************************
                            *     ORCA property calculations      *
                            ***************************************

                                    ---------------------
                                    Active property flags
                                    ---------------------
   (+) Dipole Moment


------------------------------------------------------------------------------
                       ORCA ELECTRIC PROPERTIES CALCULATION
------------------------------------------------------------------------------

Dipole Moment Calculation                       ... on
Quadrupole Moment Calculation                   ... off
Polarizability Calculation                      ... off
GBWName                                         ... Kr_zora-def2-qzvpp_34.25899725_.gbw
Electron density file                           ... Kr_zora-def2-qzvpp_34.25899725_.scfp
The origin for moment calculation is the CENTER OF MASS  = ( 0.000000,  0.000000  0.000000)

-------------
DIPOLE MOMENT
-------------
                                X             Y             Z
Electronic contribution:      0.00000      -0.00000      -0.00000
Nuclear contribution   :      0.00000       0.00000       0.00000
                        -----------------------------------------
Total Dipole Moment    :      0.00000      -0.00000      -0.00000
                        -----------------------------------------
Magnitude (a.u.)       :      0.00000
Magnitude (Debye)      :      0.00000



--------------------
Rotational spectrum 
--------------------
 
Rotational constants in cm-1:     0.000000     0.000000     0.000000 
Rotational constants in MHz :     0.000000     0.000000     0.000000 

 Dipole components along the rotational axes: 
x,y,z [a.u.] :     0.000000    -0.000000    -0.000000 
x,y,z [Debye]:     0.000000    -0.000000    -0.000000 

 

Timings for individual modules:

Sum of individual times         ...        4.617 sec (=   0.077 min)
GTO integral calculation        ...        0.588 sec (=   0.010 min)  12.7 %
Relativistic integrals          ...        0.460 sec (=   0.008 min)  10.0 %
SCF iterations                  ...        3.569 sec (=   0.059 min)  77.3 %
                             ****ORCA TERMINATED NORMALLY****
TOTAL RUN TIME: 0 days 0 hours 0 minutes 4 seconds 930 msec
