
                                 *****************
                                 * O   R   C   A *
                                 *****************

           --- An Ab Initio, DFT and Semiempirical electronic structure package ---

                  #######################################################
                  #                        -***-                        #
                  #          Department of theory and spectroscopy      #
                  #               Directorship: Frank Neese             #
                  #        Max Planck Institute fuer Kohlenforschung    #
                  #                Kaiser Wilhelm Platz 1               #
                  #                 D-45470 Muelheim/Ruhr               #
                  #                      Germany                        #
                  #                                                     #
                  #                  All rights reserved                #
                  #                        -***-                        #
                  #######################################################


                         Program Version 4.2.1 -  RELEASE  -


 With contributions from (in alphabetic order):
   Daniel Aravena         : Magnetic Suceptibility
   Michael Atanasov       : Ab Initio Ligand Field Theory (pilot matlab implementation)
   Alexander A. Auer      : GIAO ZORA, VPT2
   Ute Becker             : Parallelization
   Giovanni Bistoni       : ED, misc. LED, open-shell LED, HFLD
   Martin Brehm           : Molecular dynamics
   Dmytro Bykov           : SCF Hessian
   Vijay G. Chilkuri      : MRCI spin determinant printing, contributions to CSF-ICE
   Dipayan Datta          : RHF DLPNO-CCSD density
   Achintya Kumar Dutta   : EOM-CC, STEOM-CC
   Dmitry Ganyushin       : Spin-Orbit,Spin-Spin,Magnetic field MRCI
   Miquel Garcia          : C-PCM Hessian, Gaussian charge scheme
   Yang Guo               : DLPNO-NEVPT2, CIM, IAO-localization
   Andreas Hansen         : Spin unrestricted coupled pair/coupled cluster methods
   Benjamin Helmich-Paris : CASSCF linear response (MC-RPA)
   Lee Huntington         : MR-EOM, pCC
   Robert Izsak           : Overlap fitted RIJCOSX, COSX-SCS-MP3, EOM
   Christian Kollmar      : KDIIS, OOCD, Brueckner-CCSD(T), CCSD density
   Simone Kossmann        : Meta GGA functionals, TD-DFT gradient, OOMP2, MP2 Hessian
   Martin Krupicka        : AUTO-CI
   Lucas Lang             : DCDCAS
   Dagmar Lenk            : GEPOL surface, SMD
   Dimitrios Liakos       : Extrapolation schemes; Compound Job, initial MDCI parallelization
   Dimitrios Manganas     : Further ROCIS development; embedding schemes
   Dimitrios Pantazis     : SARC Basis sets
   Taras Petrenko         : DFT Hessian,TD-DFT gradient, ASA, ECA, R-Raman, ABS, FL, XAS/XES, NRVS
   Peter Pinski           : DLPNO-MP2, DLPNO-MP2 Gradient
   Christoph Reimann      : Effective Core Potentials
   Marius Retegan         : Local ZFS, SOC
   Christoph Riplinger    : Optimizer, TS searches, QM/MM, DLPNO-CCSD(T), (RO)-DLPNO pert. Triples
   Tobias Risthaus        : Range-separated hybrids, TD-DFT gradient, RPA, STAB
   Michael Roemelt        : Original ROCIS implementation
   Masaaki Saitow         : Open-shell DLPNO-CCSD energy and density
   Barbara Sandhoefer     : DKH picture change effects
   Avijit Sen             : IP-ROCIS
   Kantharuban Sivalingam : CASSCF convergence, NEVPT2, FIC-MRCI
   Bernardo de Souza      : ESD, SOC TD-DFT
   Georgi Stoychev        : AutoAux, RI-MP2 NMR
   Willem Van den Heuvel  : Paramagnetic NMR
   Boris Wezisla          : Elementary symmetry handling
   Frank Wennmohs         : Technical directorship


 We gratefully acknowledge several colleagues who have allowed us to
 interface, adapt or use parts of their codes:
   Stefan Grimme, W. Hujo, H. Kruse,             : VdW corrections, initial TS optimization,
                  C. Bannwarth                     DFT functionals, gCP, sTDA/sTD-DF
   Ed Valeev, F. Pavosevic, A. Kumar             : LibInt (2-el integral package), F12 methods
   Garnet Chan, S. Sharma, J. Yang, R. Olivares  : DMRG
   Ulf Ekstrom                                   : XCFun DFT Library
   Mihaly Kallay                                 : mrcc  (arbitrary order and MRCC methods)
   Andreas Klamt, Michael Diedenhofen            : otool_cosmo (COSMO solvation model)
   Jiri Pittner, Ondrej Demel                    : Mk-CCSD
   Frank Weinhold                                : gennbo (NPA and NBO analysis)
   Christopher J. Cramer and Donald G. Truhlar   : smd solvation model
   Lars Goerigk                                  : TD-DFT with DH, B97 family of functionals
   V. Asgeirsson, H. Jonsson                     : NEB implementation
   FAccTs GmbH                                   : IRC, NEB, NEB-TS, Multilevel, MM, QM/MM, CI optimization
   S Lehtola, MJT Oliveira, MAL Marques          : LibXC Library


 Your calculation uses the libint2 library for the computation of 2-el integrals
 For citations please refer to: http://libint.valeyev.net

 Your ORCA version has been built with support for libXC version: 4.2.3
 For citations please refer to: https://tddft.org/programs/libxc/

 This ORCA versions uses:
   CBLAS   interface :  Fast vector & matrix operations
   LAPACKE interface :  Fast linear algebra routines
   SCALAPACK package :  Parallel linear algebra routines


----- Orbital basis set information -----
Your calculation utilizes the basis: ZORA-def2-SVP 
   Exponents from def2-SVP [F. Weigend and R. Ahlrichs, Phys. Chem. Chem. Phys. 7, 3297 (2005)],
   recontracted for ZORA by D. A. Pantazis.

================================================================================
                                        WARNINGS
                       Please study these warnings very carefully!
================================================================================


INFO   : the flag for use of LIBINT has been found!

================================================================================
                                       INPUT FILE
================================================================================
NAME = Kr_zora-def2-svp_274.071978_.inp
|  1> ! LDA zora-def2-svp nori grid5 finalgrid6 verytightscf
|  2> %Pal NProcs 18 End
|  3> 
|  4> % REL
|  5>   Method ZORA
|  6>   ModelPot 1, 0, 0, 0
|  7>   velit 274.071978
|  8> END
|  9> 
| 10> *xyz 34 1
| 11> Kr 0.0 0.0 0.0
| 12> **                         ****END OF INPUT****
================================================================================

                       ****************************
                       * Single Point Calculation *
                       ****************************

---------------------------------
CARTESIAN COORDINATES (ANGSTROEM)
---------------------------------
  Kr     0.000000    0.000000    0.000000

----------------------------
CARTESIAN COORDINATES (A.U.)
----------------------------
  NO LB      ZA    FRAG     MASS         X           Y           Z
   0 Kr   36.0000    0    83.800    0.000000    0.000000    0.000000

--------------------------------
INTERNAL COORDINATES (ANGSTROEM)
--------------------------------
 Kr     0   0   0     0.000000000000     0.00000000     0.00000000

---------------------------
INTERNAL COORDINATES (A.U.)
---------------------------
 Kr     0   0   0     0.000000000000     0.00000000     0.00000000

---------------------
BASIS SET INFORMATION
---------------------
There are 1 groups of distinct atoms

 Group   1 Type Kr  : 14s10p6d contracted to 9s6p3d pattern {611111111/511111/411}

Atom   0Kr   basis set group =>   1


           ************************************************************
           *        Program running with 18 parallel MPI-processes    *
           *              working on a common directory               *
           ************************************************************
------------------------------------------------------------------------------
                           ORCA GTO INTEGRAL CALCULATION
------------------------------------------------------------------------------

                         BASIS SET STATISTICS AND STARTUP INFO

 # of primitive gaussian shells          ...   30
 # of primitive gaussian functions       ...   74
 # of contracted shells                  ...   18
 # of contracted basis functions         ...   42
 Highest angular momentum                ...    2
 Maximum contraction depth               ...    6
 Integral package used                   ... LIBINT
 Integral threshhold            Thresh   ...  1.000e-12
 Primitive cut-off              TCut     ...  1.000e-14


------------------------------ INTEGRAL EVALUATION ----------------------------


 * One electron integrals 
 Pre-screening matrix                    ... done
 Shell pair data                         ... done (   0.000 sec)



           ************************************************************
           *        Program running with 18 parallel MPI-processes    *
           *              working on a common directory               *
           ************************************************************
------------------------------------------------------------------------------
                          ORCA RELATIVISTIC HAMILTONIAN
------------------------------------------------------------------------------

Relativistic Method            ... ZORA(MP)
Treatment of potential         ... Van Wuellen
Nucleus model                  ... Point Nucleus
Speed of light used            ... 274.07197800000000


            *************************************************
            *         ZERO ORDER REGULAR APPROXIMATION      *
            *                     ZORA(MP)                  *
            *            Programmed by FN according to      *
            *                   C. van Wuellen              *
            *       J. Chem. Phys. (1998) vol 109, 392-399  *
            *************************************************

Terms included in model potential: +V(e,N)
Basis function cutoff value   ... 1.000000e-12
Loading the fitted atomic densities  (DKH4)  ... done
Calculating the cutoffs                      ... done
Number of fit functions                      ... 27
Setting up the integration grid ... done


           ************************************************************
           *        Program running with 18 parallel MPI-processes    *
           *              working on a common directory               *
           ************************************************************
-------------------------------------------------------------------------------
                                 ORCA SCF
-------------------------------------------------------------------------------

------------
SCF SETTINGS
------------
Hamiltonian:
 Density Functional     Method          .... DFT(GTOs)
 Exchange Functional    Exchange        .... Slater
   X-Alpha parameter    XAlpha          ....  0.666667
 Correlation Functional Correlation     .... VWN-5
 Gradients option       PostSCFGGA      .... off
   Density functional embedding theory  .... OFF

Relativistic Settings:
 Scalar relativistic method             .... ZORA
 Speed of light used       Velit        ....       274.071978
Orbital energies will be scaled


General Settings:
 Integral files         IntName         .... Kr_zora-def2-svp_274.071978_
 Hartree-Fock type      HFTyp           .... RHF
 Total Charge           Charge          ....   34
 Multiplicity           Mult            ....    1
 Number of Electrons    NEL             ....    2
 Basis Dimension        Dim             ....   42
 Nuclear Repulsion      ENuc            ....      0.0000000000 Eh

Convergence Acceleration:
 DIIS                   CNVDIIS         .... on
   Start iteration      DIISMaxIt       ....    12
   Startup error        DIISStart       ....  0.200000
   # of expansion vecs  DIISMaxEq       ....     5
   Bias factor          DIISBfac        ....   1.050
   Max. coefficient     DIISMaxC        ....  10.000
 Newton-Raphson         CNVNR           .... off
 SOSCF                  CNVSOSCF        .... on
   Start iteration      SOSCFMaxIt      ....   150
   Startup grad/error   SOSCFStart      ....  0.003300
 Level Shifting         CNVShift        .... on
   Level shift para.    LevelShift      ....    0.2500
   Turn off err/grad.   ShiftErr        ....    0.0010
 Zerner damping         CNVZerner       .... off
 Static damping         CNVDamp         .... on
   Fraction old density DampFac         ....    0.7000
   Max. Damping (<1)    DampMax         ....    0.9800
   Min. Damping (>=0)   DampMin         ....    0.0000
   Turn off err/grad.   DampErr         ....    0.1000
 Fernandez-Rico         CNVRico         .... off

SCF Procedure:
 Maximum # iterations   MaxIter         ....   125
 SCF integral mode      SCFMode         .... Direct
   Integral package                     .... LIBINT
 Reset frequency        DirectResetFreq ....    20
 Integral Threshold     Thresh          ....  1.000e-12 Eh
 Primitive CutOff       TCut            ....  1.000e-14 Eh

Convergence Tolerance:
 Convergence Check Mode ConvCheckMode   .... Total+1el-Energy
 Convergence forced     ConvForced      .... 0
 Energy Change          TolE            ....  1.000e-09 Eh
 1-El. energy change                    ....  1.000e-06 Eh
 Orbital Gradient       TolG            ....  2.000e-06
 Orbital Rotation angle TolX            ....  2.000e-06
 DIIS Error             TolErr          ....  1.000e-08


Diagonalization of the overlap matrix:
Smallest eigenvalue                        ... 5.579e-04
Time for diagonalization                   ...    0.001 sec
Threshold for overlap eigenvalues          ... 1.000e-08
Number of eigenvalues below threshold      ... 0
Time for construction of square roots      ...    0.001 sec
Total time needed                          ...    0.002 sec

-------------------
DFT GRID GENERATION
-------------------

General Integration Accuracy     IntAcc      ...  5.010
Radial Grid Type                 RadialGrid  ... Gauss-Chebyshev
Angular Grid (max. acc.)         AngularGrid ... Lebedev-434
Angular grid pruning method      GridPruning ... 3 (G Style)
Weight generation scheme         WeightScheme... Becke
Basis function cutoff            BFCut       ...    1.0000e-12
Integration weight cutoff        WCut        ...    1.0000e-14
Grids for H and He will be reduced by one unit

# of grid points (after initial pruning)     ...  16106 (   0.0 sec)
# of grid points (after weights+screening)   ...  16106 (   0.0 sec)
Grid point division into batches done        ...    0.2 sec
Reduced shell lists constructed in    0.2 sec

Total number of grid points                  ...    16106
Total number of batches                      ...      252
Average number of points per batch           ...       63
Average number of grid points per atom       ...    16106
Average number of shells per batch           ...     0.00 ( 0.00%)
Average number of basis functions per batch  ...     0.00 ( 0.00%)
Average number of large shells per batch     ...     0.00 ( -nan%)
Average number of large basis fcns per batch ...     0.00 ( -nan%)
Maximum spatial batch extension              ...  17.34, 17.34, 17.34 au
Average spatial batch extension              ...   0.86,  0.87,  0.87 au

Time for grid setup =    0.250 sec

------------------------------
INITIAL GUESS: MODEL POTENTIAL
------------------------------
Loading ZORA relativistic densities                ... done
Calculating cut-offs                               ... done
Setting up the integral package                    ... done
Initializing the effective Hamiltonian             ... done
Starting the Coulomb interaction                   ... done (   0.0 sec)
Reading the grid                                   ... done
Mapping shells                                     ... done
Starting the XC term evaluation                    ... done (   0.0 sec)
  promolecular density results
     # of electrons  =     36.000000565
     EX              =    -91.042004939
     EC              =     -3.295965580
     EX+EC           =    -94.337970520
Transforming the Hamiltonian                       ... done (   0.0 sec)
Diagonalizing the Hamiltonian                      ... done (   0.0 sec)
Back transforming the eigenvectors                 ... done (   0.0 sec)
Now organizing SCF variables                       ... done
                      ------------------
                      INITIAL GUESS DONE (   0.3 sec)
                      ------------------
--------------
SCF ITERATIONS
--------------
ITER       Energy         Delta-E        Max-DP      RMS-DP      [F,P]     Damp
               ***  Starting incremental Fock matrix formation  ***
  0  -1280.8617674003   0.000000000000 0.03679544  0.00127154  6.4399950 0.7000
  1  -1280.8846268866  -0.022859486303 0.02565622  0.00088665  4.4906271 0.7000
  2  -1280.9005375727  -0.015910686079 0.01787877  0.00061791  3.1307263 0.7000
  3  -1280.9116310384  -0.011093465642 0.01245910  0.00043063  2.1826960 0.7000
  4  -1280.9193751612  -0.007744122872 0.00868239  0.00030011  1.5217717 0.7000
  5  -1280.9247857348  -0.005410573542 0.00605055  0.00020916  1.0609927 0.7000
                      *** Initiating the SOSCF procedure ***
                      *** Re-Reading the Fockian *** 
                      *** Removing any level shift *** 
ITER      Energy       Delta-E        Grad      Rot      Max-DP    RMS-DP
  6  -1280.92856814  -0.0037824087  0.003286  0.003286  0.014055  0.000486
               *** Restarting incremental Fock matrix formation ***
  7  -1280.93737799  -0.0088098487  0.007624  0.000007  0.000146  0.000005
  8  -1280.93737814  -0.0000001476  0.000102  0.000000  0.000002  0.000000
                 **** Energy Check signals convergence ****
              ***Rediagonalizing the Fockian in SOSCF/NRSCF***

               *****************************************************
               *                     SUCCESS                       *
               *           SCF CONVERGED AFTER   9 CYCLES          *
               *****************************************************

Setting up the final grid:

General Integration Accuracy     IntAcc      ...  5.340
Radial Grid Type                 RadialGrid  ... Gauss-Chebyshev
Angular Grid (max. acc.)         AngularGrid ... Lebedev-590
Angular grid pruning method      GridPruning ... 3 (G Style)
Weight generation scheme         WeightScheme... Becke
Basis function cutoff            BFCut       ...    1.0000e-12
Integration weight cutoff        WCut        ...    1.0000e-14
Grids for H and He will be reduced by one unit

# of grid points (after initial pruning)     ...  24180 (   0.0 sec)
# of grid points (after weights+screening)   ...  24180 (   0.0 sec)
Grid point division into batches done        ...    0.4 sec
Reduced shell lists constructed in    0.4 sec

Total number of grid points                  ...    24180
Total number of batches                      ...      378
Average number of points per batch           ...       63
Average number of grid points per atom       ...    24180
Average number of shells per batch           ...     0.00 ( 0.00%)
Average number of basis functions per batch  ...     0.00 ( 0.00%)
Average number of large shells per batch     ...     0.00 ( -nan%)
Average number of large basis fcns per batch ...     0.00 ( -nan%)
Maximum spatial batch extension              ...  17.58, 17.58, 17.58 au
Average spatial batch extension              ...   0.77,  0.77,  0.77 au

Final grid set up in    0.5 sec
Final integration                            ... done (   0.0 sec)
Change in XC energy                          ...     0.000004093
Integrated number of electrons               ...     1.999999747
Previous integrated no of electrons          ...     1.999999545

----------------
TOTAL SCF ENERGY
----------------

Total Energy       :        -1280.93737405 Eh          -34856.07800 eV

Components:
Nuclear Repulsion  :            0.00000000 Eh               0.00000 eV
Electronic Energy  :        -1280.93737405 Eh          -34856.07800 eV
One Electron Energy:        -1306.23557386 Eh          -35544.47701 eV
Two Electron Energy:           25.29819981 Eh             688.39901 eV

Virial components:
Potential Energy   :        -2575.55869216 Eh          -70084.51504 eV
Kinetic Energy     :         1294.62131811 Eh           35228.43704 eV
Virial Ratio       :            1.98943016


DFT components:
N(Alpha)           :        0.999999873428 electrons
N(Beta)            :        0.999999873428 electrons
N(Total)           :        1.999999746856 electrons
E(X)               :      -19.231667110646 Eh       
E(C)               :       -0.278403005325 Eh       
E(XC)              :      -19.510070115972 Eh       
DFET-embed. en.    :        0.000000000000 Eh       

---------------
SCF CONVERGENCE
---------------

  Last Energy change         ...   -2.7057e-11  Tolerance :   1.0000e-09
  Last MAX-Density change    ...    0.0000e+00  Tolerance :   1.0000e-08
  Last RMS-Density change    ...    0.0000e+00  Tolerance :   1.0000e-09
  Last Orbital Gradient      ...    3.6722e-10  Tolerance :   2.0000e-06
  Last Orbital Rotation      ...    0.0000e+00  Tolerance :   2.0000e-06

================================================================================
                                        WARNING
Number of found core electrons (2) does not match given number of chemical core electrons (18)
================================================================================
             **** THE GBW FILE WAS UPDATED (Kr_zora-def2-svp_274.071978_.gbw) ****
             **** DENSITY FILE WAS UPDATED (Kr_zora-def2-svp_274.071978_.scfp) ****
             **** ENERGY FILE WAS UPDATED (Kr_zora-def2-svp_274.071978_.en.tmp) ****
             **** THE GBW FILE WAS UPDATED (Kr_zora-def2-svp_274.071978_.gbw) ****
             **** DENSITY FILE WAS UPDATED (Kr_zora-def2-svp_274.071978_.scfp) ****
----------------
ORBITAL ENERGIES
----------------

  NO   OCC          E(Eh)            E(eV) 
   0   2.0000    -621.279672    -16905.8794 
   1   0.0000    -149.763856     -4075.2817 
   2   0.0000    -147.488170     -4013.3571 
   3   0.0000    -147.488170     -4013.3571 
   4   0.0000    -147.488170     -4013.3571 
   5   0.0000     -65.614733     -1785.4677 
   6   0.0000     -64.517121     -1755.6001 
   7   0.0000     -64.517121     -1755.6001 
   8   0.0000     -64.517121     -1755.6001 
   9   0.0000     -58.880861     -1602.2297 
  10   0.0000     -58.880861     -1602.2297 
  11   0.0000     -58.880861     -1602.2297 
  12   0.0000     -58.880861     -1602.2297 
  13   0.0000     -58.880861     -1602.2297 
  14   0.0000     -36.473468      -992.4935 
  15   0.0000     -36.046507      -980.8753 
  16   0.0000     -36.046507      -980.8753 
  17   0.0000     -36.046507      -980.8753 
  18   0.0000     -27.849422      -757.8213 
  19   0.0000     -27.849422      -757.8213 
  20   0.0000     -27.849422      -757.8213 
  21   0.0000     -27.849422      -757.8213 
  22   0.0000     -27.849422      -757.8213 
  23   0.0000     -22.992850      -625.6673 
  24   0.0000     -22.992850      -625.6673 
  25   0.0000     -22.992850      -625.6673 
  26   0.0000     -22.255628      -605.6064 
  27   0.0000     -15.912465      -433.0002 
  28   0.0000     -15.912465      -433.0002 
  29   0.0000     -15.912465      -433.0002 
  30   0.0000     -15.287120      -415.9837 
  31   0.0000     -15.121698      -411.4823 
  32   0.0000     -15.121698      -411.4823 
  33   0.0000     -15.121698      -411.4823 
  34   0.0000     -15.121698      -411.4823 
  35   0.0000     -15.121698      -411.4823 
  36   0.0000     -10.575924      -287.7855 
  37   0.0000     -10.519668      -286.2547 
  38   0.0000     -10.519668      -286.2547 
  39   0.0000     -10.519668      -286.2547 
  40   0.0000      43.726737      1189.8650 
  41   0.0000    1156.733281     31476.3128 

                    ********************************
                    * MULLIKEN POPULATION ANALYSIS *
                    ********************************

-----------------------
MULLIKEN ATOMIC CHARGES
-----------------------
   0 Kr:   34.000000
Sum of atomic charges:   34.0000000

--------------------------------
MULLIKEN REDUCED ORBITAL CHARGES
--------------------------------
  0 Krs       :     2.000000  s :     2.000000
      pz      :     0.000000  p :     0.000000
      px      :     0.000000
      py      :     0.000000
      dz2     :     0.000000  d :     0.000000
      dxz     :     0.000000
      dyz     :     0.000000
      dx2y2   :     0.000000
      dxy     :     0.000000


                     *******************************
                     * LOEWDIN POPULATION ANALYSIS *
                     *******************************

----------------------
LOEWDIN ATOMIC CHARGES
----------------------
   0 Kr:   34.000000

-------------------------------
LOEWDIN REDUCED ORBITAL CHARGES
-------------------------------
  0 Krs       :     2.000000  s :     2.000000
      pz      :     0.000000  p :     0.000000
      px      :     0.000000
      py      :     0.000000
      dz2     :     0.000000  d :     0.000000
      dxz     :     0.000000
      dyz     :     0.000000
      dx2y2   :     0.000000
      dxy     :     0.000000


                      *****************************
                      * MAYER POPULATION ANALYSIS *
                      *****************************

  NA   - Mulliken gross atomic population
  ZA   - Total nuclear charge
  QA   - Mulliken gross atomic charge
  VA   - Mayer's total valence
  BVA  - Mayer's bonded valence
  FA   - Mayer's free valence

  ATOM       NA         ZA         QA         VA         BVA        FA
  0 Kr     2.0000    36.0000    34.0000     0.0000     0.0000     0.0000

  Mayer bond orders larger than 0.100000


--------------------------
ATOM BASIS FOR ELEMENT Kr
--------------------------
 NewGTO Kr
 S 14
    1     120165.648799999995         0.002870387013
    2      18042.500169999999         0.016215860256
    3       4105.180039000000         0.070200924296
    4       1159.444725000000         0.225057428056
    5        378.138103500000         0.417082146963
    6        130.676100500000         0.292583525441
    7        250.963733500000         0.099973887152
    8         30.265930380000         0.092278451513
    9         12.668110760000         0.019610102983
   10         22.697940100000        -0.083590281068
   11          3.867301740000        -0.003660225721
   12          1.801370667000         0.001628199678
   13          0.403086391400        -0.000398167046
   14          0.151705277500         0.000155052088
 S 14
    1     120165.648799999995         0.001107697646
    2      18042.500169999999         0.006257786895
    3       4105.180039000000         0.027090910823
    4       1159.444725000000         0.086850860935
    5        378.138103500000         0.160954223362
    6        130.676100500000         0.112909541798
    7        250.963733500000         0.169644329933
    8         30.265930380000        -1.125539130646
    9         12.668110760000        -0.390967745698
   10         22.697940100000         0.344956244174
   11          3.867301740000         0.044101105889
   12          1.801370667000        -0.021223144346
   13          0.403086391400         0.005358590332
   14          0.151705277500        -0.002084355405
 S 14
    1     120165.648799999995        -0.000603476774
    2      18042.500169999999        -0.003409259796
    3       4105.180039000000        -0.014759203955
    4       1159.444725000000        -0.047316591847
    5        378.138103500000        -0.087688310868
    6        130.676100500000        -0.061513434033
    7        250.963733500000        -0.107074745086
    8         30.265930380000         0.770498680194
    9         12.668110760000        -0.950517622466
   10         22.697940100000         0.742988337605
   11          3.867301740000        -1.023039521635
   12          1.801370667000         0.241293988505
   13          0.403086391400        -0.050941177618
   14          0.151705277500         0.019076719318
 S 14
    1     120165.648799999995        -0.000392225429
    2      18042.500169999999        -0.002215824107
    3       4105.180039000000        -0.009592639425
    4       1159.444725000000        -0.030753081657
    5        378.138103500000        -0.056992392716
    6        130.676100500000        -0.039980218059
    7        250.963733500000        -0.069901537056
    8         30.265930380000         0.136145395406
    9         12.668110760000        -2.365695531483
   10         22.697940100000         1.819238858273
   11          3.867301740000        -0.501578090345
   12          1.801370667000         1.667526367678
   13          0.403086391400        -0.157977547435
   14          0.151705277500         0.056380431881
 S 14
    1     120165.648799999995        -0.000321553582
    2      18042.500169999999        -0.001816573142
    3       4105.180039000000        -0.007864221301
    4       1159.444725000000        -0.025211938979
    5        378.138103500000        -0.046723406240
    6        130.676100500000        -0.032776514214
    7        250.963733500000        -0.053877438591
    8         30.265930380000        -0.536553416125
    9         12.668110760000        -4.068913797625
   10         22.697940100000         3.199452654651
   11          3.867301740000         2.603953606296
   12          1.801370667000        -0.560562768507
   13          0.403086391400        -1.256051254372
   14          0.151705277500         0.344447045655
 S 14
    1     120165.648799999995        -0.000329195234
    2      18042.500169999999        -0.001859743613
    3       4105.180039000000        -0.008051112831
    4       1159.444725000000        -0.025811095295
    5        378.138103500000        -0.047833777956
    6        130.676100500000        -0.033555441036
    7        250.963733500000        -0.054843146877
    8         30.265930380000        -0.746226917998
    9         12.668110760000        -5.251952646785
   10         22.697940100000         3.930136417369
   11          3.867301740000         5.402048100433
   12          1.801370667000        -4.306340791769
   13          0.403086391400         1.462931071785
   14          0.151705277500         0.014494418195
 S 14
    1     120165.648799999995        -0.000128591933
    2      18042.500169999999        -0.000726462599
    3       4105.180039000000        -0.003144967034
    4       1159.444725000000        -0.010082462575
    5        378.138103500000        -0.018685075956
    6        130.676100500000        -0.013107598673
    7        250.963733500000        -0.022376033870
    8         30.265930380000        -0.213527485427
    9         12.668110760000        -2.117007274319
   10         22.697940100000         1.442985731507
   11          3.867301740000         2.632002260391
   12          1.801370667000        -2.657956854211
   13          0.403086391400         2.679725117425
   14          0.151705277500        -2.226828458473
 S 14
    1     120165.648799999995         0.001071814627
    2      18042.500169999999         0.006055070670
    3       4105.180039000000         0.026213321464
    4       1159.444725000000         0.084037393647
    5        378.138103500000         0.155740234260
    6        130.676100500000         0.109251923451
    7        250.963733500000         0.335668338587
    8         30.265930380000       -20.475224356058
    9         12.668110760000       -14.081643855840
   10         22.697940100000        31.280582271120
   11          3.867301740000         4.504544261388
   12          1.801370667000        -2.255635681445
   13          0.403086391400         0.614034972210
   14          0.151705277500        -0.248986967176
 S 14
    1     120165.648799999995        -0.010618959524
    2      18042.500169999999        -0.059990364679
    3       4105.180039000000        -0.259707408854
    4       1159.444725000000        -0.832597035863
    5        378.138103500000        -1.542989992698
    6        130.676100500000        -1.082408957254
    7        250.963733500000         3.723935422946
    8         30.265930380000        -5.584461941941
    9         12.668110760000        -2.883021368232
   10         22.697940100000         7.641410598986
   11          3.867301740000         0.782819494032
   12          1.801370667000        -0.378116357520
   13          0.403086391400         0.097928220780
   14          0.151705277500        -0.038611122704
 P 10
    1       1668.573662000000         0.010962146099
    2        394.138628000000         0.073156889329
    3        125.466448500000         0.277036521224
    4         45.704992730000         0.545993917309
    5         17.270133230000         0.370319847278
    6          9.269948777000        -0.195543032955
    7          3.836461772000         0.118268170176
    8          1.646716331000        -0.061562370559
    9          0.614796864900         0.022384841497
   10          0.183194674100        -0.005643425995
 P 10
    1       1668.573662000000         0.006536376347
    2        394.138628000000         0.043621108197
    3        125.466448500000         0.165187997711
    4         45.704992730000         0.325558672063
    5         17.270133230000         0.220809855012
    6          9.269948777000        -1.232765548681
    7          3.836461772000         0.041425927011
    8          1.646716331000        -0.100117972853
    9          0.614796864900         0.038581977423
   10          0.183194674100        -0.009715656161
 P 10
    1       1668.573662000000         0.004160162311
    2        394.138628000000         0.027763225472
    3        125.466448500000         0.105136064058
    4         45.704992730000         0.207206079587
    5         17.270133230000         0.140537323430
    6          9.269948777000        -1.489570228633
    7          3.836461772000         1.359765075282
    8          1.646716331000         0.284447727374
    9          0.614796864900        -0.008019720858
   10          0.183194674100        -0.000028782601
 P 10
    1       1668.573662000000         0.002955420873
    2        394.138628000000         0.019723272777
    3        125.466448500000         0.074689710394
    4         45.704992730000         0.147201269278
    5         17.270133230000         0.099839118770
    6          9.269948777000        -1.439229291819
    7          3.836461772000         2.569476571652
    8          1.646716331000        -1.651101665980
    9          0.614796864900        -0.282079184404
   10          0.183194674100         0.033877800785
 P 10
    1       1668.573662000000         0.001925964935
    2        394.138628000000         0.012853103976
    3        125.466448500000         0.048673190524
    4         45.704992730000         0.095926940769
    5         17.270133230000         0.065062354963
    6          9.269948777000        -1.079703834955
    7          3.836461772000         2.511285634738
    8          1.646716331000        -3.050863483231
    9          0.614796864900         1.946234622849
   10          0.183194674100        -0.067453286549
 P 10
    1       1668.573662000000         0.000688340285
    2        394.138628000000         0.004593702147
    3        125.466448500000         0.017395808844
    4         45.704992730000         0.034284309423
    5         17.270133230000         0.023253299766
    6          9.269948777000        -0.408003146016
    7          3.836461772000         1.053579488133
    8          1.646716331000        -1.592455727072
    9          0.614796864900         1.781293706180
   10          0.183194674100        -1.510289643817
 D 6
    1        115.558686000000         0.028732604994
    2         33.477985860000         0.169430982273
    3         11.834450210000         0.464434020646
    4          4.340825489000         0.631164300247
    5          1.507927316000        -0.246641427991
    6          0.443000000000         0.071852974525
 D 6
    1        115.558686000000         0.009085055841
    2         33.477985860000         0.053572933449
    3         11.834450210000         0.146850903807
    4          4.340825489000         0.199569893293
    5          1.507927316000        -1.198062295877
    6          0.443000000000         0.168507444328
 D 6
    1        115.558686000000         0.002931178111
    2         33.477985860000         0.017284627925
    3         11.834450210000         0.047379582734
    4          4.340825489000         0.064388696463
    5          1.507927316000        -0.577881573625
    6          0.443000000000         1.195706671345
 end
  // -----------------------------------------------
  // The basis set
  // -----------------------------------------------
  BAS[ATNO] = new BFNGauss[NSH];
  // Basis function   1 L = s
  InitBFNGauss(BAS[ATNO][  0]);
  BAS[ATNO][  0].l  = 0;
  BAS[ATNO][  0].ng = 14;
  BAS[ATNO][  0].a[  0] =    120165.648799999995;     BAS[ATNO][  0].d[  0] =         0.002870387013;
  BAS[ATNO][  0].a[  1] =     18042.500169999999;     BAS[ATNO][  0].d[  1] =         0.016215860256;
  BAS[ATNO][  0].a[  2] =      4105.180039000000;     BAS[ATNO][  0].d[  2] =         0.070200924296;
  BAS[ATNO][  0].a[  3] =      1159.444725000000;     BAS[ATNO][  0].d[  3] =         0.225057428056;
  BAS[ATNO][  0].a[  4] =       378.138103500000;     BAS[ATNO][  0].d[  4] =         0.417082146963;
  BAS[ATNO][  0].a[  5] =       130.676100500000;     BAS[ATNO][  0].d[  5] =         0.292583525441;
  BAS[ATNO][  0].a[  6] =       250.963733500000;     BAS[ATNO][  0].d[  6] =         0.099973887152;
  BAS[ATNO][  0].a[  7] =        30.265930380000;     BAS[ATNO][  0].d[  7] =         0.092278451513;
  BAS[ATNO][  0].a[  8] =        12.668110760000;     BAS[ATNO][  0].d[  8] =         0.019610102983;
  BAS[ATNO][  0].a[  9] =        22.697940100000;     BAS[ATNO][  0].d[  9] =        -0.083590281068;
  BAS[ATNO][  0].a[ 10] =         3.867301740000;     BAS[ATNO][  0].d[ 10] =        -0.003660225721;
  BAS[ATNO][  0].a[ 11] =         1.801370667000;     BAS[ATNO][  0].d[ 11] =         0.001628199678;
  BAS[ATNO][  0].a[ 12] =         0.403086391400;     BAS[ATNO][  0].d[ 12] =        -0.000398167046;
  BAS[ATNO][  0].a[ 13] =         0.151705277500;     BAS[ATNO][  0].d[ 13] =         0.000155052088;

  // Basis function   2 L = s
  InitBFNGauss(BAS[ATNO][  1]);
  BAS[ATNO][  1].l  = 0;
  BAS[ATNO][  1].ng = 14;
  BAS[ATNO][  1].a[  0] =    120165.648799999995;     BAS[ATNO][  1].d[  0] =        -0.001107697646;
  BAS[ATNO][  1].a[  1] =     18042.500169999999;     BAS[ATNO][  1].d[  1] =        -0.006257786895;
  BAS[ATNO][  1].a[  2] =      4105.180039000000;     BAS[ATNO][  1].d[  2] =        -0.027090910823;
  BAS[ATNO][  1].a[  3] =      1159.444725000000;     BAS[ATNO][  1].d[  3] =        -0.086850860935;
  BAS[ATNO][  1].a[  4] =       378.138103500000;     BAS[ATNO][  1].d[  4] =        -0.160954223362;
  BAS[ATNO][  1].a[  5] =       130.676100500000;     BAS[ATNO][  1].d[  5] =        -0.112909541798;
  BAS[ATNO][  1].a[  6] =       250.963733500000;     BAS[ATNO][  1].d[  6] =        -0.169644329933;
  BAS[ATNO][  1].a[  7] =        30.265930380000;     BAS[ATNO][  1].d[  7] =         1.125539130646;
  BAS[ATNO][  1].a[  8] =        12.668110760000;     BAS[ATNO][  1].d[  8] =         0.390967745698;
  BAS[ATNO][  1].a[  9] =        22.697940100000;     BAS[ATNO][  1].d[  9] =        -0.344956244174;
  BAS[ATNO][  1].a[ 10] =         3.867301740000;     BAS[ATNO][  1].d[ 10] =        -0.044101105889;
  BAS[ATNO][  1].a[ 11] =         1.801370667000;     BAS[ATNO][  1].d[ 11] =         0.021223144346;
  BAS[ATNO][  1].a[ 12] =         0.403086391400;     BAS[ATNO][  1].d[ 12] =        -0.005358590332;
  BAS[ATNO][  1].a[ 13] =         0.151705277500;     BAS[ATNO][  1].d[ 13] =         0.002084355405;

  // Basis function   3 L = s
  InitBFNGauss(BAS[ATNO][  2]);
  BAS[ATNO][  2].l  = 0;
  BAS[ATNO][  2].ng = 14;
  BAS[ATNO][  2].a[  0] =    120165.648799999995;     BAS[ATNO][  2].d[  0] =         0.000603476774;
  BAS[ATNO][  2].a[  1] =     18042.500169999999;     BAS[ATNO][  2].d[  1] =         0.003409259796;
  BAS[ATNO][  2].a[  2] =      4105.180039000000;     BAS[ATNO][  2].d[  2] =         0.014759203955;
  BAS[ATNO][  2].a[  3] =      1159.444725000000;     BAS[ATNO][  2].d[  3] =         0.047316591847;
  BAS[ATNO][  2].a[  4] =       378.138103500000;     BAS[ATNO][  2].d[  4] =         0.087688310868;
  BAS[ATNO][  2].a[  5] =       130.676100500000;     BAS[ATNO][  2].d[  5] =         0.061513434033;
  BAS[ATNO][  2].a[  6] =       250.963733500000;     BAS[ATNO][  2].d[  6] =         0.107074745086;
  BAS[ATNO][  2].a[  7] =        30.265930380000;     BAS[ATNO][  2].d[  7] =        -0.770498680194;
  BAS[ATNO][  2].a[  8] =        12.668110760000;     BAS[ATNO][  2].d[  8] =         0.950517622466;
  BAS[ATNO][  2].a[  9] =        22.697940100000;     BAS[ATNO][  2].d[  9] =        -0.742988337605;
  BAS[ATNO][  2].a[ 10] =         3.867301740000;     BAS[ATNO][  2].d[ 10] =         1.023039521635;
  BAS[ATNO][  2].a[ 11] =         1.801370667000;     BAS[ATNO][  2].d[ 11] =        -0.241293988505;
  BAS[ATNO][  2].a[ 12] =         0.403086391400;     BAS[ATNO][  2].d[ 12] =         0.050941177618;
  BAS[ATNO][  2].a[ 13] =         0.151705277500;     BAS[ATNO][  2].d[ 13] =        -0.019076719318;

  // Basis function   4 L = s
  InitBFNGauss(BAS[ATNO][  3]);
  BAS[ATNO][  3].l  = 0;
  BAS[ATNO][  3].ng = 14;
  BAS[ATNO][  3].a[  0] =    120165.648799999995;     BAS[ATNO][  3].d[  0] =         0.000392225429;
  BAS[ATNO][  3].a[  1] =     18042.500169999999;     BAS[ATNO][  3].d[  1] =         0.002215824107;
  BAS[ATNO][  3].a[  2] =      4105.180039000000;     BAS[ATNO][  3].d[  2] =         0.009592639425;
  BAS[ATNO][  3].a[  3] =      1159.444725000000;     BAS[ATNO][  3].d[  3] =         0.030753081657;
  BAS[ATNO][  3].a[  4] =       378.138103500000;     BAS[ATNO][  3].d[  4] =         0.056992392716;
  BAS[ATNO][  3].a[  5] =       130.676100500000;     BAS[ATNO][  3].d[  5] =         0.039980218059;
  BAS[ATNO][  3].a[  6] =       250.963733500000;     BAS[ATNO][  3].d[  6] =         0.069901537056;
  BAS[ATNO][  3].a[  7] =        30.265930380000;     BAS[ATNO][  3].d[  7] =        -0.136145395406;
  BAS[ATNO][  3].a[  8] =        12.668110760000;     BAS[ATNO][  3].d[  8] =         2.365695531483;
  BAS[ATNO][  3].a[  9] =        22.697940100000;     BAS[ATNO][  3].d[  9] =        -1.819238858273;
  BAS[ATNO][  3].a[ 10] =         3.867301740000;     BAS[ATNO][  3].d[ 10] =         0.501578090345;
  BAS[ATNO][  3].a[ 11] =         1.801370667000;     BAS[ATNO][  3].d[ 11] =        -1.667526367678;
  BAS[ATNO][  3].a[ 12] =         0.403086391400;     BAS[ATNO][  3].d[ 12] =         0.157977547435;
  BAS[ATNO][  3].a[ 13] =         0.151705277500;     BAS[ATNO][  3].d[ 13] =        -0.056380431881;

  // Basis function   5 L = s
  InitBFNGauss(BAS[ATNO][  4]);
  BAS[ATNO][  4].l  = 0;
  BAS[ATNO][  4].ng = 14;
  BAS[ATNO][  4].a[  0] =    120165.648799999995;     BAS[ATNO][  4].d[  0] =         0.000321553582;
  BAS[ATNO][  4].a[  1] =     18042.500169999999;     BAS[ATNO][  4].d[  1] =         0.001816573142;
  BAS[ATNO][  4].a[  2] =      4105.180039000000;     BAS[ATNO][  4].d[  2] =         0.007864221301;
  BAS[ATNO][  4].a[  3] =      1159.444725000000;     BAS[ATNO][  4].d[  3] =         0.025211938979;
  BAS[ATNO][  4].a[  4] =       378.138103500000;     BAS[ATNO][  4].d[  4] =         0.046723406240;
  BAS[ATNO][  4].a[  5] =       130.676100500000;     BAS[ATNO][  4].d[  5] =         0.032776514214;
  BAS[ATNO][  4].a[  6] =       250.963733500000;     BAS[ATNO][  4].d[  6] =         0.053877438591;
  BAS[ATNO][  4].a[  7] =        30.265930380000;     BAS[ATNO][  4].d[  7] =         0.536553416125;
  BAS[ATNO][  4].a[  8] =        12.668110760000;     BAS[ATNO][  4].d[  8] =         4.068913797625;
  BAS[ATNO][  4].a[  9] =        22.697940100000;     BAS[ATNO][  4].d[  9] =        -3.199452654651;
  BAS[ATNO][  4].a[ 10] =         3.867301740000;     BAS[ATNO][  4].d[ 10] =        -2.603953606296;
  BAS[ATNO][  4].a[ 11] =         1.801370667000;     BAS[ATNO][  4].d[ 11] =         0.560562768507;
  BAS[ATNO][  4].a[ 12] =         0.403086391400;     BAS[ATNO][  4].d[ 12] =         1.256051254372;
  BAS[ATNO][  4].a[ 13] =         0.151705277500;     BAS[ATNO][  4].d[ 13] =        -0.344447045655;

  // Basis function   6 L = s
  InitBFNGauss(BAS[ATNO][  5]);
  BAS[ATNO][  5].l  = 0;
  BAS[ATNO][  5].ng = 14;
  BAS[ATNO][  5].a[  0] =    120165.648799999995;     BAS[ATNO][  5].d[  0] =        -0.000329195234;
  BAS[ATNO][  5].a[  1] =     18042.500169999999;     BAS[ATNO][  5].d[  1] =        -0.001859743613;
  BAS[ATNO][  5].a[  2] =      4105.180039000000;     BAS[ATNO][  5].d[  2] =        -0.008051112831;
  BAS[ATNO][  5].a[  3] =      1159.444725000000;     BAS[ATNO][  5].d[  3] =        -0.025811095295;
  BAS[ATNO][  5].a[  4] =       378.138103500000;     BAS[ATNO][  5].d[  4] =        -0.047833777956;
  BAS[ATNO][  5].a[  5] =       130.676100500000;     BAS[ATNO][  5].d[  5] =        -0.033555441036;
  BAS[ATNO][  5].a[  6] =       250.963733500000;     BAS[ATNO][  5].d[  6] =        -0.054843146877;
  BAS[ATNO][  5].a[  7] =        30.265930380000;     BAS[ATNO][  5].d[  7] =        -0.746226917998;
  BAS[ATNO][  5].a[  8] =        12.668110760000;     BAS[ATNO][  5].d[  8] =        -5.251952646785;
  BAS[ATNO][  5].a[  9] =        22.697940100000;     BAS[ATNO][  5].d[  9] =         3.930136417369;
  BAS[ATNO][  5].a[ 10] =         3.867301740000;     BAS[ATNO][  5].d[ 10] =         5.402048100433;
  BAS[ATNO][  5].a[ 11] =         1.801370667000;     BAS[ATNO][  5].d[ 11] =        -4.306340791769;
  BAS[ATNO][  5].a[ 12] =         0.403086391400;     BAS[ATNO][  5].d[ 12] =         1.462931071785;
  BAS[ATNO][  5].a[ 13] =         0.151705277500;     BAS[ATNO][  5].d[ 13] =         0.014494418195;

  // Basis function   7 L = s
  InitBFNGauss(BAS[ATNO][  6]);
  BAS[ATNO][  6].l  = 0;
  BAS[ATNO][  6].ng = 14;
  BAS[ATNO][  6].a[  0] =    120165.648799999995;     BAS[ATNO][  6].d[  0] =        -0.000128591933;
  BAS[ATNO][  6].a[  1] =     18042.500169999999;     BAS[ATNO][  6].d[  1] =        -0.000726462599;
  BAS[ATNO][  6].a[  2] =      4105.180039000000;     BAS[ATNO][  6].d[  2] =        -0.003144967034;
  BAS[ATNO][  6].a[  3] =      1159.444725000000;     BAS[ATNO][  6].d[  3] =        -0.010082462575;
  BAS[ATNO][  6].a[  4] =       378.138103500000;     BAS[ATNO][  6].d[  4] =        -0.018685075956;
  BAS[ATNO][  6].a[  5] =       130.676100500000;     BAS[ATNO][  6].d[  5] =        -0.013107598673;
  BAS[ATNO][  6].a[  6] =       250.963733500000;     BAS[ATNO][  6].d[  6] =        -0.022376033870;
  BAS[ATNO][  6].a[  7] =        30.265930380000;     BAS[ATNO][  6].d[  7] =        -0.213527485427;
  BAS[ATNO][  6].a[  8] =        12.668110760000;     BAS[ATNO][  6].d[  8] =        -2.117007274319;
  BAS[ATNO][  6].a[  9] =        22.697940100000;     BAS[ATNO][  6].d[  9] =         1.442985731507;
  BAS[ATNO][  6].a[ 10] =         3.867301740000;     BAS[ATNO][  6].d[ 10] =         2.632002260391;
  BAS[ATNO][  6].a[ 11] =         1.801370667000;     BAS[ATNO][  6].d[ 11] =        -2.657956854211;
  BAS[ATNO][  6].a[ 12] =         0.403086391400;     BAS[ATNO][  6].d[ 12] =         2.679725117425;
  BAS[ATNO][  6].a[ 13] =         0.151705277500;     BAS[ATNO][  6].d[ 13] =        -2.226828458473;

  // Basis function   8 L = s
  InitBFNGauss(BAS[ATNO][  7]);
  BAS[ATNO][  7].l  = 0;
  BAS[ATNO][  7].ng = 14;
  BAS[ATNO][  7].a[  0] =    120165.648799999995;     BAS[ATNO][  7].d[  0] =         0.001071814627;
  BAS[ATNO][  7].a[  1] =     18042.500169999999;     BAS[ATNO][  7].d[  1] =         0.006055070670;
  BAS[ATNO][  7].a[  2] =      4105.180039000000;     BAS[ATNO][  7].d[  2] =         0.026213321464;
  BAS[ATNO][  7].a[  3] =      1159.444725000000;     BAS[ATNO][  7].d[  3] =         0.084037393647;
  BAS[ATNO][  7].a[  4] =       378.138103500000;     BAS[ATNO][  7].d[  4] =         0.155740234260;
  BAS[ATNO][  7].a[  5] =       130.676100500000;     BAS[ATNO][  7].d[  5] =         0.109251923451;
  BAS[ATNO][  7].a[  6] =       250.963733500000;     BAS[ATNO][  7].d[  6] =         0.335668338587;
  BAS[ATNO][  7].a[  7] =        30.265930380000;     BAS[ATNO][  7].d[  7] =       -20.475224356058;
  BAS[ATNO][  7].a[  8] =        12.668110760000;     BAS[ATNO][  7].d[  8] =       -14.081643855840;
  BAS[ATNO][  7].a[  9] =        22.697940100000;     BAS[ATNO][  7].d[  9] =        31.280582271120;
  BAS[ATNO][  7].a[ 10] =         3.867301740000;     BAS[ATNO][  7].d[ 10] =         4.504544261388;
  BAS[ATNO][  7].a[ 11] =         1.801370667000;     BAS[ATNO][  7].d[ 11] =        -2.255635681445;
  BAS[ATNO][  7].a[ 12] =         0.403086391400;     BAS[ATNO][  7].d[ 12] =         0.614034972210;
  BAS[ATNO][  7].a[ 13] =         0.151705277500;     BAS[ATNO][  7].d[ 13] =        -0.248986967176;

  // Basis function   9 L = s
  InitBFNGauss(BAS[ATNO][  8]);
  BAS[ATNO][  8].l  = 0;
  BAS[ATNO][  8].ng = 14;
  BAS[ATNO][  8].a[  0] =    120165.648799999995;     BAS[ATNO][  8].d[  0] =        -0.010618959524;
  BAS[ATNO][  8].a[  1] =     18042.500169999999;     BAS[ATNO][  8].d[  1] =        -0.059990364679;
  BAS[ATNO][  8].a[  2] =      4105.180039000000;     BAS[ATNO][  8].d[  2] =        -0.259707408854;
  BAS[ATNO][  8].a[  3] =      1159.444725000000;     BAS[ATNO][  8].d[  3] =        -0.832597035863;
  BAS[ATNO][  8].a[  4] =       378.138103500000;     BAS[ATNO][  8].d[  4] =        -1.542989992698;
  BAS[ATNO][  8].a[  5] =       130.676100500000;     BAS[ATNO][  8].d[  5] =        -1.082408957254;
  BAS[ATNO][  8].a[  6] =       250.963733500000;     BAS[ATNO][  8].d[  6] =         3.723935422946;
  BAS[ATNO][  8].a[  7] =        30.265930380000;     BAS[ATNO][  8].d[  7] =        -5.584461941941;
  BAS[ATNO][  8].a[  8] =        12.668110760000;     BAS[ATNO][  8].d[  8] =        -2.883021368232;
  BAS[ATNO][  8].a[  9] =        22.697940100000;     BAS[ATNO][  8].d[  9] =         7.641410598986;
  BAS[ATNO][  8].a[ 10] =         3.867301740000;     BAS[ATNO][  8].d[ 10] =         0.782819494032;
  BAS[ATNO][  8].a[ 11] =         1.801370667000;     BAS[ATNO][  8].d[ 11] =        -0.378116357520;
  BAS[ATNO][  8].a[ 12] =         0.403086391400;     BAS[ATNO][  8].d[ 12] =         0.097928220780;
  BAS[ATNO][  8].a[ 13] =         0.151705277500;     BAS[ATNO][  8].d[ 13] =        -0.038611122704;

  // Basis function  10 L = p
  InitBFNGauss(BAS[ATNO][  9]);
  BAS[ATNO][  9].l  = 1;
  BAS[ATNO][  9].ng = 10;
  BAS[ATNO][  9].a[  0] =      1668.573662000000;     BAS[ATNO][  9].d[  0] =         0.010962146099;
  BAS[ATNO][  9].a[  1] =       394.138628000000;     BAS[ATNO][  9].d[  1] =         0.073156889329;
  BAS[ATNO][  9].a[  2] =       125.466448500000;     BAS[ATNO][  9].d[  2] =         0.277036521224;
  BAS[ATNO][  9].a[  3] =        45.704992730000;     BAS[ATNO][  9].d[  3] =         0.545993917309;
  BAS[ATNO][  9].a[  4] =        17.270133230000;     BAS[ATNO][  9].d[  4] =         0.370319847278;
  BAS[ATNO][  9].a[  5] =         9.269948777000;     BAS[ATNO][  9].d[  5] =        -0.195543032955;
  BAS[ATNO][  9].a[  6] =         3.836461772000;     BAS[ATNO][  9].d[  6] =         0.118268170176;
  BAS[ATNO][  9].a[  7] =         1.646716331000;     BAS[ATNO][  9].d[  7] =        -0.061562370559;
  BAS[ATNO][  9].a[  8] =         0.614796864900;     BAS[ATNO][  9].d[  8] =         0.022384841497;
  BAS[ATNO][  9].a[  9] =         0.183194674100;     BAS[ATNO][  9].d[  9] =        -0.005643425995;

  // Basis function  11 L = p
  InitBFNGauss(BAS[ATNO][ 10]);
  BAS[ATNO][ 10].l  = 1;
  BAS[ATNO][ 10].ng = 10;
  BAS[ATNO][ 10].a[  0] =      1668.573662000000;     BAS[ATNO][ 10].d[  0] =        -0.006536376347;
  BAS[ATNO][ 10].a[  1] =       394.138628000000;     BAS[ATNO][ 10].d[  1] =        -0.043621108197;
  BAS[ATNO][ 10].a[  2] =       125.466448500000;     BAS[ATNO][ 10].d[  2] =        -0.165187997711;
  BAS[ATNO][ 10].a[  3] =        45.704992730000;     BAS[ATNO][ 10].d[  3] =        -0.325558672063;
  BAS[ATNO][ 10].a[  4] =        17.270133230000;     BAS[ATNO][ 10].d[  4] =        -0.220809855012;
  BAS[ATNO][ 10].a[  5] =         9.269948777000;     BAS[ATNO][ 10].d[  5] =         1.232765548681;
  BAS[ATNO][ 10].a[  6] =         3.836461772000;     BAS[ATNO][ 10].d[  6] =        -0.041425927011;
  BAS[ATNO][ 10].a[  7] =         1.646716331000;     BAS[ATNO][ 10].d[  7] =         0.100117972853;
  BAS[ATNO][ 10].a[  8] =         0.614796864900;     BAS[ATNO][ 10].d[  8] =        -0.038581977423;
  BAS[ATNO][ 10].a[  9] =         0.183194674100;     BAS[ATNO][ 10].d[  9] =         0.009715656161;

  // Basis function  12 L = p
  InitBFNGauss(BAS[ATNO][ 11]);
  BAS[ATNO][ 11].l  = 1;
  BAS[ATNO][ 11].ng = 10;
  BAS[ATNO][ 11].a[  0] =      1668.573662000000;     BAS[ATNO][ 11].d[  0] =        -0.004160162311;
  BAS[ATNO][ 11].a[  1] =       394.138628000000;     BAS[ATNO][ 11].d[  1] =        -0.027763225472;
  BAS[ATNO][ 11].a[  2] =       125.466448500000;     BAS[ATNO][ 11].d[  2] =        -0.105136064058;
  BAS[ATNO][ 11].a[  3] =        45.704992730000;     BAS[ATNO][ 11].d[  3] =        -0.207206079587;
  BAS[ATNO][ 11].a[  4] =        17.270133230000;     BAS[ATNO][ 11].d[  4] =        -0.140537323430;
  BAS[ATNO][ 11].a[  5] =         9.269948777000;     BAS[ATNO][ 11].d[  5] =         1.489570228633;
  BAS[ATNO][ 11].a[  6] =         3.836461772000;     BAS[ATNO][ 11].d[  6] =        -1.359765075282;
  BAS[ATNO][ 11].a[  7] =         1.646716331000;     BAS[ATNO][ 11].d[  7] =        -0.284447727374;
  BAS[ATNO][ 11].a[  8] =         0.614796864900;     BAS[ATNO][ 11].d[  8] =         0.008019720858;
  BAS[ATNO][ 11].a[  9] =         0.183194674100;     BAS[ATNO][ 11].d[  9] =         0.000028782601;

  // Basis function  13 L = p
  InitBFNGauss(BAS[ATNO][ 12]);
  BAS[ATNO][ 12].l  = 1;
  BAS[ATNO][ 12].ng = 10;
  BAS[ATNO][ 12].a[  0] =      1668.573662000000;     BAS[ATNO][ 12].d[  0] =         0.002955420873;
  BAS[ATNO][ 12].a[  1] =       394.138628000000;     BAS[ATNO][ 12].d[  1] =         0.019723272777;
  BAS[ATNO][ 12].a[  2] =       125.466448500000;     BAS[ATNO][ 12].d[  2] =         0.074689710394;
  BAS[ATNO][ 12].a[  3] =        45.704992730000;     BAS[ATNO][ 12].d[  3] =         0.147201269278;
  BAS[ATNO][ 12].a[  4] =        17.270133230000;     BAS[ATNO][ 12].d[  4] =         0.099839118770;
  BAS[ATNO][ 12].a[  5] =         9.269948777000;     BAS[ATNO][ 12].d[  5] =        -1.439229291819;
  BAS[ATNO][ 12].a[  6] =         3.836461772000;     BAS[ATNO][ 12].d[  6] =         2.569476571652;
  BAS[ATNO][ 12].a[  7] =         1.646716331000;     BAS[ATNO][ 12].d[  7] =        -1.651101665980;
  BAS[ATNO][ 12].a[  8] =         0.614796864900;     BAS[ATNO][ 12].d[  8] =        -0.282079184404;
  BAS[ATNO][ 12].a[  9] =         0.183194674100;     BAS[ATNO][ 12].d[  9] =         0.033877800785;

  // Basis function  14 L = p
  InitBFNGauss(BAS[ATNO][ 13]);
  BAS[ATNO][ 13].l  = 1;
  BAS[ATNO][ 13].ng = 10;
  BAS[ATNO][ 13].a[  0] =      1668.573662000000;     BAS[ATNO][ 13].d[  0] =        -0.001925964935;
  BAS[ATNO][ 13].a[  1] =       394.138628000000;     BAS[ATNO][ 13].d[  1] =        -0.012853103976;
  BAS[ATNO][ 13].a[  2] =       125.466448500000;     BAS[ATNO][ 13].d[  2] =        -0.048673190524;
  BAS[ATNO][ 13].a[  3] =        45.704992730000;     BAS[ATNO][ 13].d[  3] =        -0.095926940769;
  BAS[ATNO][ 13].a[  4] =        17.270133230000;     BAS[ATNO][ 13].d[  4] =        -0.065062354963;
  BAS[ATNO][ 13].a[  5] =         9.269948777000;     BAS[ATNO][ 13].d[  5] =         1.079703834955;
  BAS[ATNO][ 13].a[  6] =         3.836461772000;     BAS[ATNO][ 13].d[  6] =        -2.511285634738;
  BAS[ATNO][ 13].a[  7] =         1.646716331000;     BAS[ATNO][ 13].d[  7] =         3.050863483231;
  BAS[ATNO][ 13].a[  8] =         0.614796864900;     BAS[ATNO][ 13].d[  8] =        -1.946234622849;
  BAS[ATNO][ 13].a[  9] =         0.183194674100;     BAS[ATNO][ 13].d[  9] =         0.067453286549;

  // Basis function  15 L = p
  InitBFNGauss(BAS[ATNO][ 14]);
  BAS[ATNO][ 14].l  = 1;
  BAS[ATNO][ 14].ng = 10;
  BAS[ATNO][ 14].a[  0] =      1668.573662000000;     BAS[ATNO][ 14].d[  0] =         0.000688340285;
  BAS[ATNO][ 14].a[  1] =       394.138628000000;     BAS[ATNO][ 14].d[  1] =         0.004593702147;
  BAS[ATNO][ 14].a[  2] =       125.466448500000;     BAS[ATNO][ 14].d[  2] =         0.017395808844;
  BAS[ATNO][ 14].a[  3] =        45.704992730000;     BAS[ATNO][ 14].d[  3] =         0.034284309423;
  BAS[ATNO][ 14].a[  4] =        17.270133230000;     BAS[ATNO][ 14].d[  4] =         0.023253299766;
  BAS[ATNO][ 14].a[  5] =         9.269948777000;     BAS[ATNO][ 14].d[  5] =        -0.408003146016;
  BAS[ATNO][ 14].a[  6] =         3.836461772000;     BAS[ATNO][ 14].d[  6] =         1.053579488133;
  BAS[ATNO][ 14].a[  7] =         1.646716331000;     BAS[ATNO][ 14].d[  7] =        -1.592455727072;
  BAS[ATNO][ 14].a[  8] =         0.614796864900;     BAS[ATNO][ 14].d[  8] =         1.781293706180;
  BAS[ATNO][ 14].a[  9] =         0.183194674100;     BAS[ATNO][ 14].d[  9] =        -1.510289643817;

  // Basis function  16 L = d
  InitBFNGauss(BAS[ATNO][ 15]);
  BAS[ATNO][ 15].l  = 2;
  BAS[ATNO][ 15].ng = 6;
  BAS[ATNO][ 15].a[  0] =       115.558686000000;     BAS[ATNO][ 15].d[  0] =         0.028732604994;
  BAS[ATNO][ 15].a[  1] =        33.477985860000;     BAS[ATNO][ 15].d[  1] =         0.169430982273;
  BAS[ATNO][ 15].a[  2] =        11.834450210000;     BAS[ATNO][ 15].d[  2] =         0.464434020646;
  BAS[ATNO][ 15].a[  3] =         4.340825489000;     BAS[ATNO][ 15].d[  3] =         0.631164300247;
  BAS[ATNO][ 15].a[  4] =         1.507927316000;     BAS[ATNO][ 15].d[  4] =        -0.246641427991;
  BAS[ATNO][ 15].a[  5] =         0.443000000000;     BAS[ATNO][ 15].d[  5] =         0.071852974525;

  // Basis function  17 L = d
  InitBFNGauss(BAS[ATNO][ 16]);
  BAS[ATNO][ 16].l  = 2;
  BAS[ATNO][ 16].ng = 6;
  BAS[ATNO][ 16].a[  0] =       115.558686000000;     BAS[ATNO][ 16].d[  0] =        -0.009085055841;
  BAS[ATNO][ 16].a[  1] =        33.477985860000;     BAS[ATNO][ 16].d[  1] =        -0.053572933449;
  BAS[ATNO][ 16].a[  2] =        11.834450210000;     BAS[ATNO][ 16].d[  2] =        -0.146850903807;
  BAS[ATNO][ 16].a[  3] =         4.340825489000;     BAS[ATNO][ 16].d[  3] =        -0.199569893293;
  BAS[ATNO][ 16].a[  4] =         1.507927316000;     BAS[ATNO][ 16].d[  4] =         1.198062295877;
  BAS[ATNO][ 16].a[  5] =         0.443000000000;     BAS[ATNO][ 16].d[  5] =        -0.168507444328;

  // Basis function  18 L = d
  InitBFNGauss(BAS[ATNO][ 17]);
  BAS[ATNO][ 17].l  = 2;
  BAS[ATNO][ 17].ng = 6;
  BAS[ATNO][ 17].a[  0] =       115.558686000000;     BAS[ATNO][ 17].d[  0] =         0.002931178111;
  BAS[ATNO][ 17].a[  1] =        33.477985860000;     BAS[ATNO][ 17].d[  1] =         0.017284627925;
  BAS[ATNO][ 17].a[  2] =        11.834450210000;     BAS[ATNO][ 17].d[  2] =         0.047379582734;
  BAS[ATNO][ 17].a[  3] =         4.340825489000;     BAS[ATNO][ 17].d[  3] =         0.064388696463;
  BAS[ATNO][ 17].a[  4] =         1.507927316000;     BAS[ATNO][ 17].d[  4] =        -0.577881573625;
  BAS[ATNO][ 17].a[  5] =         0.443000000000;     BAS[ATNO][ 17].d[  5] =         1.195706671345;

-------
TIMINGS
-------

Total SCF time: 0 days 0 hours 0 min 2 sec 

Total time                  ....       2.076 sec
Sum of individual times     ....       1.903 sec  ( 91.6%)

Fock matrix formation       ....       1.123 sec  ( 54.1%)
  XC integration            ....       0.034 sec  (  3.0% of F)
    Basis function eval.    ....       0.005 sec  ( 13.8% of XC)
    Density eval.           ....       0.002 sec  (  5.7% of XC)
    XC-Functional eval.     ....       0.003 sec  (  8.6% of XC)
    XC-Potential eval.      ....       0.002 sec  (  5.6% of XC)
Diagonalization             ....       0.002 sec  (  0.1%)
Density matrix formation    ....       0.001 sec  (  0.0%)
Population analysis         ....       0.001 sec  (  0.0%)
Initial guess               ....       0.070 sec  (  3.4%)
Orbital Transformation      ....       0.000 sec  (  0.0%)
Orbital Orthonormalization  ....       0.000 sec  (  0.0%)
DIIS solution               ....       0.000 sec  (  0.0%)
SOSCF solution              ....       0.001 sec  (  0.0%)
Grid generation             ....       0.706 sec  ( 34.0%)

-------------------------   --------------------
FINAL SINGLE POINT ENERGY     -1280.937374047070
-------------------------   --------------------


                            ***************************************
                            *     ORCA property calculations      *
                            ***************************************

                                    ---------------------
                                    Active property flags
                                    ---------------------
   (+) Dipole Moment


------------------------------------------------------------------------------
                       ORCA ELECTRIC PROPERTIES CALCULATION
------------------------------------------------------------------------------

Dipole Moment Calculation                       ... on
Quadrupole Moment Calculation                   ... off
Polarizability Calculation                      ... off
GBWName                                         ... Kr_zora-def2-svp_274.071978_.gbw
Electron density file                           ... Kr_zora-def2-svp_274.071978_.scfp
The origin for moment calculation is the CENTER OF MASS  = ( 0.000000,  0.000000  0.000000)

-------------
DIPOLE MOMENT
-------------
                                X             Y             Z
Electronic contribution:     -0.00000       0.00000      -0.00000
Nuclear contribution   :      0.00000       0.00000       0.00000
                        -----------------------------------------
Total Dipole Moment    :     -0.00000       0.00000      -0.00000
                        -----------------------------------------
Magnitude (a.u.)       :      0.00000
Magnitude (Debye)      :      0.00000



--------------------
Rotational spectrum 
--------------------
 
Rotational constants in cm-1:     0.000000     0.000000     0.000000 
Rotational constants in MHz :     0.000000     0.000000     0.000000 

 Dipole components along the rotational axes: 
x,y,z [a.u.] :    -0.000000     0.000000    -0.000000 
x,y,z [Debye]:    -0.000000     0.000000    -0.000000 

 

Timings for individual modules:

Sum of individual times         ...        3.295 sec (=   0.055 min)
GTO integral calculation        ...        0.487 sec (=   0.008 min)  14.8 %
Relativistic integrals          ...        0.463 sec (=   0.008 min)  14.0 %
SCF iterations                  ...        2.345 sec (=   0.039 min)  71.2 %
                             ****ORCA TERMINATED NORMALLY****
TOTAL RUN TIME: 0 days 0 hours 0 minutes 3 seconds 616 msec
