
                                 *****************
                                 * O   R   C   A *
                                 *****************

           --- An Ab Initio, DFT and Semiempirical electronic structure package ---

                  #######################################################
                  #                        -***-                        #
                  #          Department of theory and spectroscopy      #
                  #               Directorship: Frank Neese             #
                  #        Max Planck Institute fuer Kohlenforschung    #
                  #                Kaiser Wilhelm Platz 1               #
                  #                 D-45470 Muelheim/Ruhr               #
                  #                      Germany                        #
                  #                                                     #
                  #                  All rights reserved                #
                  #                        -***-                        #
                  #######################################################


                         Program Version 4.2.1 -  RELEASE  -


 With contributions from (in alphabetic order):
   Daniel Aravena         : Magnetic Suceptibility
   Michael Atanasov       : Ab Initio Ligand Field Theory (pilot matlab implementation)
   Alexander A. Auer      : GIAO ZORA, VPT2
   Ute Becker             : Parallelization
   Giovanni Bistoni       : ED, misc. LED, open-shell LED, HFLD
   Martin Brehm           : Molecular dynamics
   Dmytro Bykov           : SCF Hessian
   Vijay G. Chilkuri      : MRCI spin determinant printing, contributions to CSF-ICE
   Dipayan Datta          : RHF DLPNO-CCSD density
   Achintya Kumar Dutta   : EOM-CC, STEOM-CC
   Dmitry Ganyushin       : Spin-Orbit,Spin-Spin,Magnetic field MRCI
   Miquel Garcia          : C-PCM Hessian, Gaussian charge scheme
   Yang Guo               : DLPNO-NEVPT2, CIM, IAO-localization
   Andreas Hansen         : Spin unrestricted coupled pair/coupled cluster methods
   Benjamin Helmich-Paris : CASSCF linear response (MC-RPA)
   Lee Huntington         : MR-EOM, pCC
   Robert Izsak           : Overlap fitted RIJCOSX, COSX-SCS-MP3, EOM
   Christian Kollmar      : KDIIS, OOCD, Brueckner-CCSD(T), CCSD density
   Simone Kossmann        : Meta GGA functionals, TD-DFT gradient, OOMP2, MP2 Hessian
   Martin Krupicka        : AUTO-CI
   Lucas Lang             : DCDCAS
   Dagmar Lenk            : GEPOL surface, SMD
   Dimitrios Liakos       : Extrapolation schemes; Compound Job, initial MDCI parallelization
   Dimitrios Manganas     : Further ROCIS development; embedding schemes
   Dimitrios Pantazis     : SARC Basis sets
   Taras Petrenko         : DFT Hessian,TD-DFT gradient, ASA, ECA, R-Raman, ABS, FL, XAS/XES, NRVS
   Peter Pinski           : DLPNO-MP2, DLPNO-MP2 Gradient
   Christoph Reimann      : Effective Core Potentials
   Marius Retegan         : Local ZFS, SOC
   Christoph Riplinger    : Optimizer, TS searches, QM/MM, DLPNO-CCSD(T), (RO)-DLPNO pert. Triples
   Tobias Risthaus        : Range-separated hybrids, TD-DFT gradient, RPA, STAB
   Michael Roemelt        : Original ROCIS implementation
   Masaaki Saitow         : Open-shell DLPNO-CCSD energy and density
   Barbara Sandhoefer     : DKH picture change effects
   Avijit Sen             : IP-ROCIS
   Kantharuban Sivalingam : CASSCF convergence, NEVPT2, FIC-MRCI
   Bernardo de Souza      : ESD, SOC TD-DFT
   Georgi Stoychev        : AutoAux, RI-MP2 NMR
   Willem Van den Heuvel  : Paramagnetic NMR
   Boris Wezisla          : Elementary symmetry handling
   Frank Wennmohs         : Technical directorship


 We gratefully acknowledge several colleagues who have allowed us to
 interface, adapt or use parts of their codes:
   Stefan Grimme, W. Hujo, H. Kruse,             : VdW corrections, initial TS optimization,
                  C. Bannwarth                     DFT functionals, gCP, sTDA/sTD-DF
   Ed Valeev, F. Pavosevic, A. Kumar             : LibInt (2-el integral package), F12 methods
   Garnet Chan, S. Sharma, J. Yang, R. Olivares  : DMRG
   Ulf Ekstrom                                   : XCFun DFT Library
   Mihaly Kallay                                 : mrcc  (arbitrary order and MRCC methods)
   Andreas Klamt, Michael Diedenhofen            : otool_cosmo (COSMO solvation model)
   Jiri Pittner, Ondrej Demel                    : Mk-CCSD
   Frank Weinhold                                : gennbo (NPA and NBO analysis)
   Christopher J. Cramer and Donald G. Truhlar   : smd solvation model
   Lars Goerigk                                  : TD-DFT with DH, B97 family of functionals
   V. Asgeirsson, H. Jonsson                     : NEB implementation
   FAccTs GmbH                                   : IRC, NEB, NEB-TS, Multilevel, MM, QM/MM, CI optimization
   S Lehtola, MJT Oliveira, MAL Marques          : LibXC Library


 Your calculation uses the libint2 library for the computation of 2-el integrals
 For citations please refer to: http://libint.valeyev.net

 Your ORCA version has been built with support for libXC version: 4.2.3
 For citations please refer to: https://tddft.org/programs/libxc/

 This ORCA versions uses:
   CBLAS   interface :  Fast vector & matrix operations
   LAPACKE interface :  Fast linear algebra routines
   SCALAPACK package :  Parallel linear algebra routines


----- Orbital basis set information -----
Your calculation utilizes the basis: ZORA-def2-QZVPP 
   Exponents from def2-QZVPP [F. Weigend and R. Ahlrichs, Phys. Chem. Chem. Phys. 7, 3297 (2005)],
   recontracted for ZORA by D. A. Pantazis.

================================================================================
                                        WARNINGS
                       Please study these warnings very carefully!
================================================================================


INFO   : the flag for use of LIBINT has been found!

================================================================================
                                       INPUT FILE
================================================================================
NAME = Kr_zora-def2-qzvpp_4385.151648_.inp
|  1> ! LDA zora-def2-qzvpp nori grid5 finalgrid6 verytightscf
|  2> %Pal NProcs 18 End
|  3> 
|  4> % REL
|  5>   Method ZORA
|  6>   ModelPot 1, 0, 0, 0
|  7>   velit 4385.151648
|  8> END
|  9> 
| 10> *xyz 34 1
| 11> Kr 0.0 0.0 0.0
| 12> **                         ****END OF INPUT****
================================================================================

                       ****************************
                       * Single Point Calculation *
                       ****************************

---------------------------------
CARTESIAN COORDINATES (ANGSTROEM)
---------------------------------
  Kr     0.000000    0.000000    0.000000

----------------------------
CARTESIAN COORDINATES (A.U.)
----------------------------
  NO LB      ZA    FRAG     MASS         X           Y           Z
   0 Kr   36.0000    0    83.800    0.000000    0.000000    0.000000

--------------------------------
INTERNAL COORDINATES (ANGSTROEM)
--------------------------------
 Kr     0   0   0     0.000000000000     0.00000000     0.00000000

---------------------------
INTERNAL COORDINATES (A.U.)
---------------------------
 Kr     0   0   0     0.000000000000     0.00000000     0.00000000

---------------------
BASIS SET INFORMATION
---------------------
There are 1 groups of distinct atoms

 Group   1 Type Kr  : 24s20p10d4f1g contracted to 14s11p4d4f1g pattern {111111111111111/101111111111/7111/1111/1}

Atom   0Kr   basis set group =>   1


           ************************************************************
           *        Program running with 18 parallel MPI-processes    *
           *              working on a common directory               *
           ************************************************************
------------------------------------------------------------------------------
                           ORCA GTO INTEGRAL CALCULATION
------------------------------------------------------------------------------

                         BASIS SET STATISTICS AND STARTUP INFO

 # of primitive gaussian shells          ...   59
 # of primitive gaussian functions       ...  171
 # of contracted shells                  ...   34
 # of contracted basis functions         ...  104
 Highest angular momentum                ...    4
 Maximum contraction depth               ...   11
 Integral package used                   ... LIBINT
 Integral threshhold            Thresh   ...  1.000e-12
 Primitive cut-off              TCut     ...  1.000e-14


------------------------------ INTEGRAL EVALUATION ----------------------------


 * One electron integrals 
 Pre-screening matrix                    ... done
 Shell pair data                         ... done (   0.000 sec)



           ************************************************************
           *        Program running with 18 parallel MPI-processes    *
           *              working on a common directory               *
           ************************************************************
------------------------------------------------------------------------------
                          ORCA RELATIVISTIC HAMILTONIAN
------------------------------------------------------------------------------

Relativistic Method            ... ZORA(MP)
Treatment of potential         ... Van Wuellen
Nucleus model                  ... Point Nucleus
Speed of light used            ... 4385.15164800000002


            *************************************************
            *         ZERO ORDER REGULAR APPROXIMATION      *
            *                     ZORA(MP)                  *
            *            Programmed by FN according to      *
            *                   C. van Wuellen              *
            *       J. Chem. Phys. (1998) vol 109, 392-399  *
            *************************************************

Terms included in model potential: +V(e,N)
Basis function cutoff value   ... 1.000000e-12
Loading the fitted atomic densities  (DKH4)  ... done
Calculating the cutoffs                      ... done
Number of fit functions                      ... 27
Setting up the integration grid ... done


           ************************************************************
           *        Program running with 18 parallel MPI-processes    *
           *              working on a common directory               *
           ************************************************************
-------------------------------------------------------------------------------
                                 ORCA SCF
-------------------------------------------------------------------------------

------------
SCF SETTINGS
------------
Hamiltonian:
 Density Functional     Method          .... DFT(GTOs)
 Exchange Functional    Exchange        .... Slater
   X-Alpha parameter    XAlpha          ....  0.666667
 Correlation Functional Correlation     .... VWN-5
 Gradients option       PostSCFGGA      .... off
   Density functional embedding theory  .... OFF

Relativistic Settings:
 Scalar relativistic method             .... ZORA
 Speed of light used       Velit        ....       4385.15165
Orbital energies will be scaled


General Settings:
 Integral files         IntName         .... Kr_zora-def2-qzvpp_4385.151648_
 Hartree-Fock type      HFTyp           .... RHF
 Total Charge           Charge          ....   34
 Multiplicity           Mult            ....    1
 Number of Electrons    NEL             ....    2
 Basis Dimension        Dim             ....  104
 Nuclear Repulsion      ENuc            ....      0.0000000000 Eh

Convergence Acceleration:
 DIIS                   CNVDIIS         .... on
   Start iteration      DIISMaxIt       ....    12
   Startup error        DIISStart       ....  0.200000
   # of expansion vecs  DIISMaxEq       ....     5
   Bias factor          DIISBfac        ....   1.050
   Max. coefficient     DIISMaxC        ....  10.000
 Newton-Raphson         CNVNR           .... off
 SOSCF                  CNVSOSCF        .... on
   Start iteration      SOSCFMaxIt      ....   150
   Startup grad/error   SOSCFStart      ....  0.003300
 Level Shifting         CNVShift        .... on
   Level shift para.    LevelShift      ....    0.2500
   Turn off err/grad.   ShiftErr        ....    0.0010
 Zerner damping         CNVZerner       .... off
 Static damping         CNVDamp         .... on
   Fraction old density DampFac         ....    0.7000
   Max. Damping (<1)    DampMax         ....    0.9800
   Min. Damping (>=0)   DampMin         ....    0.0000
   Turn off err/grad.   DampErr         ....    0.1000
 Fernandez-Rico         CNVRico         .... off

SCF Procedure:
 Maximum # iterations   MaxIter         ....   125
 SCF integral mode      SCFMode         .... Direct
   Integral package                     .... LIBINT
 Reset frequency        DirectResetFreq ....    20
 Integral Threshold     Thresh          ....  1.000e-12 Eh
 Primitive CutOff       TCut            ....  1.000e-14 Eh

Convergence Tolerance:
 Convergence Check Mode ConvCheckMode   .... Total+1el-Energy
 Convergence forced     ConvForced      .... 0
 Energy Change          TolE            ....  1.000e-09 Eh
 1-El. energy change                    ....  1.000e-06 Eh
 Orbital Gradient       TolG            ....  2.000e-06
 Orbital Rotation angle TolX            ....  2.000e-06
 DIIS Error             TolErr          ....  1.000e-08


Diagonalization of the overlap matrix:
Smallest eigenvalue                        ... 2.527e-04
Time for diagonalization                   ...    0.003 sec
Threshold for overlap eigenvalues          ... 1.000e-08
Number of eigenvalues below threshold      ... 0
Time for construction of square roots      ...    0.002 sec
Total time needed                          ...    0.004 sec

-------------------
DFT GRID GENERATION
-------------------

General Integration Accuracy     IntAcc      ...  5.010
Radial Grid Type                 RadialGrid  ... Gauss-Chebyshev
Angular Grid (max. acc.)         AngularGrid ... Lebedev-434
Angular grid pruning method      GridPruning ... 3 (G Style)
Weight generation scheme         WeightScheme... Becke
Basis function cutoff            BFCut       ...    1.0000e-12
Integration weight cutoff        WCut        ...    1.0000e-14
Grids for H and He will be reduced by one unit

# of grid points (after initial pruning)     ...  16106 (   0.0 sec)
# of grid points (after weights+screening)   ...  16106 (   0.0 sec)
Grid point division into batches done        ...    0.2 sec
Reduced shell lists constructed in    0.2 sec

Total number of grid points                  ...    16106
Total number of batches                      ...      252
Average number of points per batch           ...       63
Average number of grid points per atom       ...    16106
Average number of shells per batch           ...     1.47 ( 4.31%)
Average number of basis functions per batch  ...     3.33 ( 3.21%)
Average number of large shells per batch     ...     0.93 (63.64%)
Average number of large basis fcns per batch ...     2.80 (84.00%)
Maximum spatial batch extension              ...  17.34, 17.34, 17.34 au
Average spatial batch extension              ...   0.86,  0.87,  0.87 au

Time for grid setup =    0.252 sec

------------------------------
INITIAL GUESS: MODEL POTENTIAL
------------------------------
Loading ZORA relativistic densities                ... done
Calculating cut-offs                               ... done
Setting up the integral package                    ... done
Initializing the effective Hamiltonian             ... done
Starting the Coulomb interaction                   ... done (   0.0 sec)
Reading the grid                                   ... done
Mapping shells                                     ... done
Starting the XC term evaluation                    ... done (   0.0 sec)
  promolecular density results
     # of electrons  =     36.000000565
     EX              =    -91.042004939
     EC              =     -3.295965580
     EX+EC           =    -94.337970520
Transforming the Hamiltonian                       ... done (   0.0 sec)
Diagonalizing the Hamiltonian                      ... done (   0.0 sec)
Back transforming the eigenvectors                 ... done (   0.0 sec)
Now organizing SCF variables                       ... done
                      ------------------
                      INITIAL GUESS DONE (   0.3 sec)
                      ------------------
--------------
SCF ITERATIONS
--------------
ITER       Energy         Delta-E        Max-DP      RMS-DP      [F,P]     Damp
               ***  Starting incremental Fock matrix formation  ***
  0  -1270.4613396377   0.000000000000 0.00323297  0.00004995  8.9799035 0.7000
  1  -1270.4870822902  -0.025742652491 0.00224670  0.00003484  6.2464540 0.7000
  2  -1270.5049894176  -0.017907127413 0.00156042  0.00002428  4.3443232 0.7000
  3  -1270.5174698964  -0.012480478765 0.00108375  0.00001692  3.0214371 0.7000
  4  -1270.5261798690  -0.008709972611 0.00075269  0.00001179  2.1013909 0.7000
                      *** Initiating the SOSCF procedure ***
                      *** Re-Reading the Fockian *** 
                      *** Removing any level shift *** 
ITER      Energy       Delta-E        Grad      Rot      Max-DP    RMS-DP
  5  -1270.53226410  -0.0060842293  0.003291  0.003291  0.001743  0.000027
               *** Restarting incremental Fock matrix formation ***
  6  -1270.54642040  -0.0141562969  0.007635  0.000011  0.000032  0.000000
  7  -1270.54642080  -0.0000004041  0.000108  0.000000  0.000000  0.000000
                 **** Energy Check signals convergence ****
              ***Rediagonalizing the Fockian in SOSCF/NRSCF***

               *****************************************************
               *                     SUCCESS                       *
               *           SCF CONVERGED AFTER   8 CYCLES          *
               *****************************************************

Setting up the final grid:

General Integration Accuracy     IntAcc      ...  5.340
Radial Grid Type                 RadialGrid  ... Gauss-Chebyshev
Angular Grid (max. acc.)         AngularGrid ... Lebedev-590
Angular grid pruning method      GridPruning ... 3 (G Style)
Weight generation scheme         WeightScheme... Becke
Basis function cutoff            BFCut       ...    1.0000e-12
Integration weight cutoff        WCut        ...    1.0000e-14
Grids for H and He will be reduced by one unit

# of grid points (after initial pruning)     ...  24180 (   0.0 sec)
# of grid points (after weights+screening)   ...  24180 (   0.0 sec)
Grid point division into batches done        ...    0.4 sec
Reduced shell lists constructed in    0.4 sec

Total number of grid points                  ...    24180
Total number of batches                      ...      378
Average number of points per batch           ...       63
Average number of grid points per atom       ...    24180
Average number of shells per batch           ...     0.27 ( 0.80%)
Average number of basis functions per batch  ...     0.55 ( 0.52%)
Average number of large shells per batch     ...     0.14 (50.00%)
Average number of large basis fcns per batch ...     0.41 (75.00%)
Maximum spatial batch extension              ...  17.58, 17.58, 17.58 au
Average spatial batch extension              ...   0.77,  0.77,  0.77 au

Final grid set up in    0.4 sec
Final integration                            ... done (   0.0 sec)
Change in XC energy                          ...    -0.000063986
Integrated number of electrons               ...     1.999999920
Previous integrated no of electrons          ...     1.999997842

----------------
TOTAL SCF ENERGY
----------------

Total Energy       :        -1270.54648479 Eh          -34573.32753 eV

Components:
Nuclear Repulsion  :            0.00000000 Eh               0.00000 eV
Electronic Energy  :        -1270.54648479 Eh          -34573.32753 eV
One Electron Energy:        -1295.66872827 Eh          -35256.93852 eV
Two Electron Energy:           25.12224349 Eh             683.61100 eV

Virial components:
Potential Energy   :        -2540.30007372 Eh          -69125.07926 eV
Kinetic Energy     :         1269.75358894 Eh           34551.75173 eV
Virial Ratio       :            2.00062445


DFT components:
N(Alpha)           :        0.999999960246 electrons
N(Beta)            :        0.999999960246 electrons
N(Total)           :        1.999999920492 electrons
E(X)               :      -19.079490948687 Eh       
E(C)               :       -0.277960015453 Eh       
E(XC)              :      -19.357450964140 Eh       
DFET-embed. en.    :        0.000000000000 Eh       

---------------
SCF CONVERGENCE
---------------

  Last Energy change         ...   -8.4583e-11  Tolerance :   1.0000e-09
  Last MAX-Density change    ...    2.9768e-11  Tolerance :   1.0000e-08
  Last RMS-Density change    ...    5.2493e-13  Tolerance :   1.0000e-09
  Last Orbital Gradient      ...    3.9853e-09  Tolerance :   2.0000e-06
  Last Orbital Rotation      ...    1.8165e-12  Tolerance :   2.0000e-06

================================================================================
                                        WARNING
Number of found core electrons (2) does not match given number of chemical core electrons (18)
================================================================================
             **** THE GBW FILE WAS UPDATED (Kr_zora-def2-qzvpp_4385.151648_.gbw) ****
             **** DENSITY FILE WAS UPDATED (Kr_zora-def2-qzvpp_4385.151648_.scfp) ****
             **** ENERGY FILE WAS UPDATED (Kr_zora-def2-qzvpp_4385.151648_.en.tmp) ****
             **** THE GBW FILE WAS UPDATED (Kr_zora-def2-qzvpp_4385.151648_.gbw) ****
             **** DENSITY FILE WAS UPDATED (Kr_zora-def2-qzvpp_4385.151648_.scfp) ****
----------------
ORBITAL ENERGIES
----------------

  NO   OCC          E(Eh)            E(eV) 
   0   2.0000    -616.223105    -16768.2832 
   1   0.0000    -148.985372     -4054.0981 
   2   0.0000    -147.224841     -4006.1916 
   3   0.0000    -147.224841     -4006.1916 
   4   0.0000    -147.224841     -4006.1916 
   5   0.0000     -65.452598     -1781.0557 
   6   0.0000     -64.853419     -1764.7512 
   7   0.0000     -64.853419     -1764.7512 
   8   0.0000     -64.853419     -1764.7512 
   9   0.0000     -59.450752     -1617.7372 
  10   0.0000     -59.450752     -1617.7372 
  11   0.0000     -59.450752     -1617.7372 
  12   0.0000     -59.450752     -1617.7372 
  13   0.0000     -59.450752     -1617.7372 
  14   0.0000     -36.619588      -996.4697 
  15   0.0000     -36.364055      -989.5162 
  16   0.0000     -36.364055      -989.5162 
  17   0.0000     -36.364055      -989.5162 
  18   0.0000     -35.800042      -974.1687 
  19   0.0000     -35.800042      -974.1687 
  20   0.0000     -35.800042      -974.1687 
  21   0.0000     -35.800042      -974.1687 
  22   0.0000     -35.800042      -974.1687 
  23   0.0000     -35.800042      -974.1687 
  24   0.0000     -35.800042      -974.1687 
  25   0.0000     -28.950184      -787.7746 
  26   0.0000     -28.950184      -787.7746 
  27   0.0000     -28.950184      -787.7746 
  28   0.0000     -28.950184      -787.7746 
  29   0.0000     -28.950184      -787.7746 
  30   0.0000     -23.230634      -632.1377 
  31   0.0000     -23.230634      -632.1377 
  32   0.0000     -23.230634      -632.1377 
  33   0.0000     -23.196570      -631.2108 
  34   0.0000     -20.753050      -564.7192 
  35   0.0000     -20.753050      -564.7192 
  36   0.0000     -20.753050      -564.7192 
  37   0.0000     -20.753050      -564.7192 
  38   0.0000     -20.753050      -564.7192 
  39   0.0000     -20.753050      -564.7192 
  40   0.0000     -20.753050      -564.7192 
  41   0.0000     -17.077323      -464.6976 
  42   0.0000     -17.077323      -464.6976 
  43   0.0000     -17.077323      -464.6976 
  44   0.0000     -17.077323      -464.6976 
  45   0.0000     -17.077323      -464.6976 
  46   0.0000     -16.015788      -435.8118 
  47   0.0000     -16.015788      -435.8118 
  48   0.0000     -16.015788      -435.8118 
  49   0.0000     -15.648889      -425.8279 
  50   0.0000     -14.891946      -405.2305 
  51   0.0000     -14.891946      -405.2305 
  52   0.0000     -14.891946      -405.2305 
  53   0.0000     -14.891946      -405.2305 
  54   0.0000     -14.891946      -405.2305 
  55   0.0000     -14.891946      -405.2305 
  56   0.0000     -14.891946      -405.2305 
  57   0.0000     -14.891946      -405.2305 
  58   0.0000     -14.891946      -405.2305 
  59   0.0000     -14.522571      -395.1793 
  60   0.0000     -14.522571      -395.1793 
  61   0.0000     -14.522571      -395.1793 
  62   0.0000     -14.522571      -395.1793 
  63   0.0000     -14.522571      -395.1793 
  64   0.0000     -14.522571      -395.1793 
  65   0.0000     -14.522571      -395.1793 
  66   0.0000     -11.326537      -308.2107 
  67   0.0000     -11.299371      -307.4715 
  68   0.0000     -11.299371      -307.4715 
  69   0.0000     -11.299371      -307.4715 
  70   0.0000     -11.211696      -305.0858 
  71   0.0000     -11.211696      -305.0858 
  72   0.0000     -11.211696      -305.0858 
  73   0.0000     -11.211696      -305.0858 
  74   0.0000     -11.211696      -305.0858 
  75   0.0000     -11.211696      -305.0858 
  76   0.0000     -11.211696      -305.0858 
  77   0.0000     -10.794431      -293.7314 
  78   0.0000     -10.794431      -293.7314 
  79   0.0000     -10.794431      -293.7314 
  80   0.0000     -10.794431      -293.7314 
  81   0.0000     -10.794431      -293.7314 
  82   0.0000      -8.610601      -234.3064 
  83   0.0000      -8.010515      -217.9772 
  84   0.0000      -8.010515      -217.9772 
  85   0.0000      -8.010515      -217.9772 
  86   0.0000      -6.545419      -178.1099 
  87   0.0000      -6.545419      -178.1099 
  88   0.0000      -6.545419      -178.1099 
  89   0.0000      35.650811       970.1079 
  90   0.0000      89.095948      2424.4240 
  91   0.0000      89.095948      2424.4240 
  92   0.0000      89.095948      2424.4240 
  93   0.0000     221.920877      6038.7741 
  94   0.0000     460.498588     12530.8036 
  95   0.0000     460.498588     12530.8036 
  96   0.0000     460.498588     12530.8036 
  97   0.0000     757.851137     20622.1779 
  98   0.0000     923.604473     25132.5554 
  99   0.0000     923.604473     25132.5554 
 100   0.0000     923.604473     25132.5554 
 101   0.0000    2272.345023     61833.6516 
 102   0.0000    7367.713863    200485.6867 
 103   0.0000   38650.772006   1051740.9758 

                    ********************************
                    * MULLIKEN POPULATION ANALYSIS *
                    ********************************

-----------------------
MULLIKEN ATOMIC CHARGES
-----------------------
   0 Kr:   34.000000
Sum of atomic charges:   34.0000000

--------------------------------
MULLIKEN REDUCED ORBITAL CHARGES
--------------------------------
  0 Krs       :     2.000000  s :     2.000000
      pz      :     0.000000  p :     0.000000
      px      :     0.000000
      py      :     0.000000
      dz2     :     0.000000  d :     0.000000
      dxz     :     0.000000
      dyz     :     0.000000
      dx2y2   :     0.000000
      dxy     :     0.000000
      f0      :     0.000000  f :     0.000000
      f+1     :     0.000000
      f-1     :     0.000000
      f+2     :     0.000000
      f-2     :     0.000000
      f+3     :     0.000000
      f-3     :     0.000000
      g0      :     0.000000  g :     0.000000
      g+1     :     0.000000
      g-1     :     0.000000
      g+2     :     0.000000
      g-2     :     0.000000
      g+3     :     0.000000
      g-3     :     0.000000
      g+4     :     0.000000
      g-4     :     0.000000


                     *******************************
                     * LOEWDIN POPULATION ANALYSIS *
                     *******************************

----------------------
LOEWDIN ATOMIC CHARGES
----------------------
   0 Kr:   34.000000

-------------------------------
LOEWDIN REDUCED ORBITAL CHARGES
-------------------------------
  0 Krs       :     2.000000  s :     2.000000
      pz      :     0.000000  p :     0.000000
      px      :     0.000000
      py      :     0.000000
      dz2     :     0.000000  d :     0.000000
      dxz     :     0.000000
      dyz     :     0.000000
      dx2y2   :     0.000000
      dxy     :     0.000000
      f0      :     0.000000  f :     0.000000
      f+1     :     0.000000
      f-1     :     0.000000
      f+2     :     0.000000
      f-2     :     0.000000
      f+3     :     0.000000
      f-3     :     0.000000
      g0      :     0.000000  g :     0.000000
      g+1     :     0.000000
      g-1     :     0.000000
      g+2     :     0.000000
      g-2     :     0.000000
      g+3     :     0.000000
      g-3     :     0.000000
      g+4     :     0.000000
      g-4     :     0.000000


                      *****************************
                      * MAYER POPULATION ANALYSIS *
                      *****************************

  NA   - Mulliken gross atomic population
  ZA   - Total nuclear charge
  QA   - Mulliken gross atomic charge
  VA   - Mayer's total valence
  BVA  - Mayer's bonded valence
  FA   - Mayer's free valence

  ATOM       NA         ZA         QA         VA         BVA        FA
  0 Kr     2.0000    36.0000    34.0000    -0.0000     0.0000    -0.0000

  Mayer bond orders larger than 0.100000


--------------------------
ATOM BASIS FOR ELEMENT Kr
--------------------------
 NewGTO Kr
 S 24
    1   11713823.007999999449         0.000033053663
    2    1755253.397899999982         0.000118322619
    3     399717.419240000017         0.000385319866
    4     113285.792600000001         0.001201256502
    5      36977.205292999999         0.003594051012
    6      13355.036580000000         0.010244053424
    7       5210.901298800000         0.027229083004
    8       2162.113702000000         0.065759035602
    9        943.292910230000         0.132523445194
   10        429.207243310000         0.231831719019
   11        202.407208400000         0.232605690616
   12       3260.498552100000         0.019814081275
   13       1011.106971600000         0.058924478262
   14        392.443592730000         0.108154729507
   15        173.217021320000         0.093120635075
   16         96.619988467000         0.150061338465
   17         38.158284867000         0.012944232774
   18         18.959517570000        -0.002538202098
   19          9.250599619900         0.000825324175
   20          4.348651762100        -0.000292603367
   21          2.038032420900         0.000103133145
   22          0.691101525400        -0.000039343291
   23          0.335060651400         0.000021792298
   24          0.140744411200        -0.000005345600
 S 24
    1   11713823.007999999449        -0.000011537393
    2    1755253.397899999982        -0.000041300552
    3     399717.419240000017        -0.000134496037
    4     113285.792600000001        -0.000419299012
    5      36977.205292999999        -0.001254504792
    6      13355.036580000000        -0.003575690513
    7       5210.901298800000        -0.009504321166
    8       2162.113702000000        -0.022953214908
    9        943.292910230000        -0.046257355967
   10        429.207243310000        -0.080920944482
   11        202.407208400000        -0.081191099545
   12       3260.498552100000        -0.008102022532
   13       1011.106971600000        -0.032691744562
   14        392.443592730000        -0.094319277336
   15        173.217021320000        -0.166303415057
   16         96.619988467000        -0.037026914094
   17         38.158284867000         0.575013733319
   18         18.959517570000         0.530058050539
   19          9.250599619900         0.061682595009
   20          4.348651762100        -0.002135673450
   21          2.038032420900         0.000456079312
   22          0.691101525400        -0.000121253887
   23          0.335060651400         0.000060601050
   24          0.140744411200        -0.000014026075
 S 24
    1   11713823.007999999449        -0.000006226710
    2    1755253.397899999982        -0.000022289832
    3     399717.419240000017        -0.000072587265
    4     113285.792600000001        -0.000226294908
    5      36977.205292999999        -0.000677053936
    6      13355.036580000000        -0.001929793612
    7       5210.901298800000        -0.005129464703
    8       2162.113702000000        -0.012387807991
    9        943.292910230000        -0.024965010182
   10        429.207243310000        -0.043672885333
   11        202.407208400000        -0.043818687525
   12       3260.498552100000        -0.004468109316
   13       1011.106971600000        -0.019030959519
   14        392.443592730000        -0.057370226878
   15        173.217021320000        -0.114388801106
   16         96.619988467000        -0.014878936629
   17         38.158284867000         0.608249235298
   18         18.959517570000         0.832862379965
   19          9.250599619900        -1.025531622447
   20          4.348651762100        -0.694946224562
   21          2.038032420900         0.063932441108
   22          0.691101525400        -0.025773788484
   23          0.335060651400         0.014243584844
   24          0.140744411200        -0.003472814674
 S 24
    1   11713823.007999999449         0.000004045448
    2    1755253.397899999982         0.000014481540
    3     399717.419240000017         0.000047159412
    4     113285.792600000001         0.000147022138
    5      36977.205292999999         0.000439876966
    6      13355.036580000000         0.001253772727
    7       5210.901298800000         0.003332575519
    8       2162.113702000000         0.008048267809
    9        943.292910230000         0.016219583637
   10        429.207243310000         0.028373952631
   11        202.407208400000         0.028468679243
   12       3260.498552100000         0.002800584510
   13       1011.106971600000         0.013213756399
   14        392.443592730000         0.035457108242
   15        173.217021320000         0.093494215147
   16         96.619988467000        -0.017565302800
   17         38.158284867000        -0.431144618272
   18         18.959517570000        -1.016855888440
   19          9.250599619900         2.257310850637
   20          4.348651762100         0.157766955535
   21          2.038032420900        -1.718630751680
   22          0.691101525400         0.180876682040
   23          0.335060651400        -0.098799759329
   24          0.140744411200         0.023624943299
 S 24
    1   11713823.007999999449         0.000002953317
    2    1755253.397899999982         0.000010572028
    3     399717.419240000017         0.000034428011
    4     113285.792600000001         0.000107331275
    5      36977.205292999999         0.000321125486
    6      13355.036580000000         0.000915297703
    7       5210.901298800000         0.002432896052
    8       2162.113702000000         0.005875515457
    9        943.292910230000         0.011840860249
   10        429.207243310000         0.020713972401
   11        202.407208400000         0.020783126123
   12       3260.498552100000         0.001769154290
   13       1011.106971600000         0.010970893605
   14        392.443592730000         0.018720779238
   15        173.217021320000         0.100452698041
   16         96.619988467000        -0.074549985346
   17         38.158284867000        -0.185899176100
   18         18.959517570000        -1.345821549227
   19          9.250599619900         3.550178397632
   20          4.348651762100        -2.427056534711
   21          2.038032420900        -1.040719043786
   22          0.691101525400         2.468825408980
   23          0.335060651400        -0.878871146355
   24          0.140744411200         0.184527358491
 S 24
    1   11713823.007999999449         0.000002591396
    2    1755253.397899999982         0.000009276452
    3     399717.419240000017         0.000030208944
    4     113285.792600000001         0.000094178095
    5      36977.205292999999         0.000281772358
    6      13355.036580000000         0.000803130251
    7       5210.901298800000         0.002134750705
    8       2162.113702000000         0.005155485683
    9        943.292910230000         0.010389792340
   10        429.207243310000         0.018175526716
   11        202.407208400000         0.018236205821
   12       3260.498552100000         0.001277389632
   13       1011.106971600000         0.010878965739
   14        392.443592730000         0.009066146928
   15        173.217021320000         0.119179207170
   16         96.619988467000        -0.127485646854
   17         38.158284867000        -0.006815340514
   18         18.959517570000        -1.767256063768
   19          9.250599619900         4.984431145331
   20          4.348651762100        -5.972567948821
   21          2.038032420900         3.021701835815
   22          0.691101525400         1.464508200238
   23          0.335060651400        -2.632589084733
   24          0.140744411200         0.483037103701
 S 24
    1   11713823.007999999449         0.000002767942
    2    1755253.397899999982         0.000009908438
    3     399717.419240000017         0.000032267016
    4     113285.792600000001         0.000100594250
    5      36977.205292999999         0.000300968915
    6      13355.036580000000         0.000857845821
    7       5210.901298800000         0.002280186767
    8       2162.113702000000         0.005506718046
    9        943.292910230000         0.011097626973
   10        429.207243310000         0.019413787004
   11        202.407208400000         0.019478600050
   12       3260.498552100000         0.001270194858
   13       1011.106971600000         0.012068643510
   14        392.443592730000         0.007170221072
   15        173.217021320000         0.138709478714
   16         96.619988467000        -0.159096137216
   17         38.158284867000         0.050188283151
   18         18.959517570000        -2.177752325286
   19          9.250599619900         6.502416852318
   20          4.348651762100        -9.484709079433
   21          2.038032420900         8.060366578206
   22          0.691101525400        -5.614642141455
   23          0.335060651400         2.606038632527
   24          0.140744411200         0.366071073631
 S 24
    1   11713823.007999999449         0.000001552066
    2    1755253.397899999982         0.000005555950
    3     399717.419240000017         0.000018093057
    4     113285.792600000001         0.000056406130
    5      36977.205292999999         0.000168762049
    6      13355.036580000000         0.000481019173
    7       5210.901298800000         0.001278567229
    8       2162.113702000000         0.003087777429
    9        943.292910230000         0.006222763140
   10        429.207243310000         0.010885876637
   11        202.407208400000         0.010922219202
   12       3260.498552100000         0.000749957834
   13       1011.106971600000         0.006620240487
   14        392.443592730000         0.005067189449
   15        173.217021320000         0.074285400382
   16         96.619988467000        -0.081926069893
   17         38.158284867000         0.005581219911
   18         18.959517570000        -1.217477676241
   19          9.250599619900         3.864775704178
   20          4.348651762100        -6.152446894013
   21          2.038032420900         6.156024745014
   22          0.691101525400        -7.202141234617
   23          0.335060651400         7.468023424749
   24          0.140744411200        -3.375232775156
 S 24
    1   11713823.007999999449         0.000008229158
    2    1755253.397899999982         0.000029458020
    3     399717.419240000017         0.000095930606
    4     113285.792600000001         0.000299069095
    5      36977.205292999999         0.000894787734
    6      13355.036580000000         0.002550396006
    7       5210.901298800000         0.006779049432
    8       2162.113702000000         0.016371603585
    9        943.292910230000         0.032993508658
   10        429.207243310000         0.057717650017
   11        202.407208400000         0.057910340741
   12       3260.498552100000         0.015119483636
   13       1011.106971600000        -0.011628020144
   14        392.443592730000         0.339840456783
   15        173.217021320000        -0.815249332891
   16         96.619988467000         2.188494957300
   17         38.158284867000        -8.963491803887
   18         18.959517570000        16.327797362563
   19          9.250599619900       -16.264792303645
   20          4.348651762100        11.211316296016
   21          2.038032420900        -5.631980750089
   22          0.691101525400         2.709374725535
   23          0.335060651400        -1.614635055622
   24          0.140744411200         0.415923119080
 S 24
    1   11713823.007999999449        -0.000020161428
    2    1755253.397899999982        -0.000072172120
    3     399717.419240000017        -0.000235029886
    4     113285.792600000001        -0.000732718977
    5      36977.205292999999        -0.002192229034
    6      13355.036580000000        -0.006248467611
    7       5210.901298800000        -0.016608664187
    8       2162.113702000000        -0.040110412070
    9        943.292910230000        -0.080834062528
   10        429.207243310000        -0.141408183615
   11        202.407208400000        -0.141880275692
   12       3260.498552100000         0.021097091107
   13       1011.106971600000        -0.237712586071
   14        392.443592730000         0.823621008554
   15        173.217021320000        -5.500043897047
   16         96.619988467000        11.070203431584
   17         38.158284867000       -13.837143057252
   18         18.959517570000        14.100563864506
   19          9.250599619900        -9.728935903754
   20          4.348651762100         5.459705106434
   21          2.038032420900        -2.490814911862
   22          0.691101525400         1.128616657606
   23          0.335060651400        -0.657439554636
   24          0.140744411200         0.166136672633
 S 24
    1   11713823.007999999449        -0.000017031594
    2    1755253.397899999982        -0.000060968216
    3     399717.419240000017        -0.000198544159
    4     113285.792600000001        -0.000618972658
    5      36977.205292999999        -0.001851910315
    6      13355.036580000000        -0.005278463810
    7       5210.901298800000        -0.014030357249
    8       2162.113702000000        -0.033883725048
    9        943.292910230000        -0.068285490173
   10        429.207243310000        -0.119456165267
   11        202.407208400000        -0.119854970397
   12       3260.498552100000        -0.128855931520
   13       1011.106971600000         0.410537047308
   14        392.443592730000        -4.418355033828
   15        173.217021320000        13.565047505299
   16         96.619988467000       -14.303663063817
   17         38.158284867000         9.953147848806
   18         18.959517570000        -8.256727807608
   19          9.250599619900         5.222716677508
   20          4.348651762100        -2.851119711827
   21          2.038032420900         1.293315411379
   22          0.691101525400        -0.584855287703
   23          0.335060651400         0.340150525837
   24          0.140744411200        -0.085787756092
 S 24
    1   11713823.007999999449        -0.000085254879
    2    1755253.397899999982        -0.000305187981
    3     399717.419240000017        -0.000993850485
    4     113285.792600000001        -0.003098385166
    5      36977.205292999999        -0.009270088715
    6      13355.036580000000        -0.026422352858
    7       5210.901298800000        -0.070231617247
    8       2162.113702000000        -0.169611419458
    9        943.292910230000        -0.341815986885
   10        429.207243310000        -0.597960517190
   11        202.407208400000        -0.599956811993
   12       3260.498552100000         0.296229145751
   13       1011.106971600000        -2.960730499049
   14        392.443592730000         8.969871613484
   15        173.217021320000       -11.556379446286
   16         96.619988467000         9.703075810334
   17         38.158284867000        -5.624646776789
   18         18.959517570000         4.503341361708
   19          9.250599619900        -2.837419315587
   20          4.348651762100         1.556041520064
   21          2.038032420900        -0.708849395399
   22          0.691101525400         0.321406649658
   23          0.335060651400        -0.186994363080
   24          0.140744411200         0.047154240667
 S 24
    1   11713823.007999999449        -0.000046303114
    2    1755253.397899999982        -0.000165751849
    3     399717.419240000017        -0.000539774060
    4     113285.792600000001        -0.001682776198
    5      36977.205292999999        -0.005034714476
    6      13355.036580000000        -0.014350348363
    7       5210.901298800000        -0.038143770884
    8       2162.113702000000        -0.092118327566
    9        943.292910230000        -0.185645029961
   10        429.207243310000        -0.324760696950
   11        202.407208400000        -0.325844912501
   12       3260.498552100000         2.356645765422
   13       1011.106971600000        -4.259064286914
   14        392.443592730000         6.120584677698
   15        173.217021320000        -6.359031861073
   16         96.619988467000         5.028874446181
   17         38.158284867000        -2.874696439820
   18         18.959517570000         2.321297788697
   19          9.250599619900        -1.476001046748
   20          4.348651762100         0.814765769704
   21          2.038032420900        -0.372525569317
   22          0.691101525400         0.169268404443
   23          0.335060651400        -0.098521365307
   24          0.140744411200         0.024846682218
 S 24
    1   11713823.007999999449        -0.002822122199
    2    1755253.397899999982        -0.010102386881
    3     399717.419240000017        -0.032898615725
    4     113285.792600000001        -0.102563297423
    5      36977.205292999999        -0.306860127178
    6      13355.036580000000        -0.874637428804
    7       5210.901298800000        -2.324819498876
    8       2162.113702000000        -5.614507406248
    9        943.292910230000       -11.314853658274
   10        429.207243310000       -19.793795507021
   11        202.407208400000       -19.859877213043
   12       3260.498552100000         7.673074379067
   13       1011.106971600000        11.547143224517
   14        392.443592730000        25.976566574720
   15        173.217021320000        15.067449322292
   16         96.619988467000        -0.487674517025
   17         38.158284867000        -0.458246251725
   18         18.959517570000         0.475711521385
   19          9.250599619900        -0.331104015658
   20          4.348651762100         0.190126694427
   21          2.038032420900        -0.088440070754
   22          0.691101525400         0.040566319409
   23          0.335060651400        -0.023666154795
   24          0.140744411200         0.005975556879
 P 20
    1      28609.335767000000         0.000169907366
    2       6773.123636400000         0.000805248193
    3       2199.801107900000         0.003723900897
    4        841.502015900000         0.014571619356
    5        356.921102880000         0.048083691760
    6        162.711743510000         0.127686860577
    7         78.004264994000         0.255138872079
    8         38.682579997000         0.344474234436
    9         19.589158685000         0.254699850383
   10          9.799086341700         0.070837557782
   11        261.377868690000         0.018852305321
   12        100.099321460000         0.070316997422
   13         44.012139363000         0.047478104390
   14         10.854010739000        -0.118028333234
   15          5.435193018200         0.044014742769
   16          2.706280554200        -0.032129483176
   17          1.319563340800         0.017623826900
   18          0.580044559700        -0.007874756203
   19          0.243299762600         0.003199878788
   20          0.096823725100        -0.000898771049
 P 20
    1      28609.335767000000         0.000090550713
    2       6773.123636400000         0.000429150303
    3       2199.801107900000         0.001984621902
    4        841.502015900000         0.007765822916
    5        356.921102880000         0.025625802200
    6        162.711743510000         0.068049646624
    7         78.004264994000         0.135974132394
    8         38.682579997000         0.183584668138
    9         19.589158685000         0.135740159446
   10          9.799086341700         0.037752285184
   11        261.377868690000         0.018408871394
   12        100.099321460000         0.103223454230
   13         44.012139363000         0.048432120437
   14         10.854010739000        -0.974364418260
   15          5.435193018200        -0.196173030684
   16          2.706280554200        -0.121394055405
   17          1.319563340800         0.063355827893
   18          0.580044559700        -0.028609482365
   19          0.243299762600         0.011611391616
   20          0.096823725100        -0.003242557932
 P 20
    1      28609.335767000000         0.000059385954
    2       6773.123636400000         0.000281450022
    3       2199.801107900000         0.001301576333
    4        841.502015900000         0.005093066494
    5        356.921102880000         0.016806192463
    6        162.711743510000         0.044629059777
    7         78.004264994000         0.089176035201
    8         38.682579997000         0.120400494859
    9         19.589158685000         0.089022588516
   10          9.799086341700         0.024759114496
   11        261.377868690000         0.012353701923
   12        100.099321460000         0.084943927323
   13         44.012139363000         0.022670738843
   14         10.854010739000        -1.292485088113
   15          5.435193018200         0.417215467546
   16          2.706280554200         0.958124208538
   17          1.319563340800         0.059119251004
   18          0.580044559700        -0.010361828662
   19          0.243299762600         0.004111845852
   20          0.096823725100        -0.001146489711
 P 20
    1      28609.335767000000        -0.000045605558
    2       6773.123636400000        -0.000216140087
    3       2199.801107900000        -0.000999548055
    4        841.502015900000        -0.003911230236
    5        356.921102880000        -0.012906347915
    6        162.711743510000        -0.034272972530
    7         78.004264994000        -0.068482908222
    8         38.682579997000        -0.092461792237
    9         19.589158685000        -0.068365068544
   10          9.799086341700        -0.019013809729
   11        261.377868690000        -0.007214946234
   12        100.099321460000        -0.062614180240
   13         44.012139363000        -0.008071563856
   14         10.854010739000         1.349802566908
   15          5.435193018200        -1.194840308055
   16          2.706280554200        -1.120793238751
   17          1.319563340800         1.804608576015
   18          0.580044559700        -0.072956622410
   19          0.243299762600         0.036294843722
   20          0.096823725100        -0.009738610958
 P 20
    1      28609.335767000000        -0.000039618866
    2       6773.123636400000        -0.000187767141
    3       2199.801107900000        -0.000868336286
    4        841.502015900000        -0.003397798755
    5        356.921102880000        -0.011212117474
    6        162.711743510000        -0.029773921849
    7         78.004264994000        -0.059493081776
    8         38.682579997000        -0.080324231396
    9         19.589158685000        -0.059390711042
   10          9.799086341700        -0.016517846080
   11        261.377868690000        -0.002645182421
   12        100.099321460000        -0.041903570057
   13         44.012139363000         0.001155925035
   14         10.854010739000         1.349951570020
   15          5.435193018200        -1.962440206446
   16          2.706280554200         0.172383311230
   17          1.319563340800         2.273069498134
   18          0.580044559700        -2.311301492454
   19          0.243299762600         0.352847688461
   20          0.096823725100        -0.081164035857
 P 20
    1      28609.335767000000        -0.000039074431
    2       6773.123636400000        -0.000185186880
    3       2199.801107900000        -0.000856403770
    4        841.502015900000        -0.003351106835
    5        356.921102880000        -0.011058042636
    6        162.711743510000        -0.029364774138
    7         78.004264994000        -0.058675538882
    8         38.682579997000        -0.079220430708
    9         19.589158685000        -0.058574574907
   10          9.799086341700        -0.016290860903
   11        261.377868690000         0.000794533709
   12        100.099321460000        -0.027873334362
   13         44.012139363000         0.007086260327
   14         10.854010739000         1.434253198435
   15          5.435193018200        -2.808273388679
   16          2.706280554200         2.353249664214
   17          1.319563340800        -0.128919730524
   18          0.580044559700        -2.044258564314
   19          0.243299762600         2.210428205410
   20          0.096823725100        -0.354779267365
 P 20
    1      28609.335767000000        -0.000059798355
    2       6773.123636400000        -0.000283404531
    3       2199.801107900000        -0.001310615035
    4        841.502015900000        -0.005128434923
    5        356.921102880000        -0.016922901845
    6        162.711743510000        -0.044938983038
    7         78.004264994000        -0.089795311693
    8         38.682579997000        -0.121236607341
    9         19.589158685000        -0.089640799409
   10          9.799086341700        -0.024931052367
   11        261.377868690000         0.002912630539
   12        100.099321460000        -0.035955254314
   13         44.012139363000         0.013320447585
   14         10.854010739000         2.348652057090
   15          5.435193018200        -5.327857519651
   16          2.706280554200         6.502197178801
   17          1.319563340800        -5.023280859347
   18          0.580044559700         2.458586876165
   19          0.243299762600        -0.188294190464
   20          0.096823725100        -0.870724787742
 P 20
    1      28609.335767000000        -0.000047912625
    2       6773.123636400000        -0.000227074057
    3       2199.801107900000        -0.001050112616
    4        841.502015900000        -0.004109089297
    5        356.921102880000        -0.013559246802
    6        162.711743510000        -0.036006753904
    7         78.004264994000        -0.071947282099
    8         38.682579997000        -0.097139196073
    9         19.589158685000        -0.071823481215
   10          9.799086341700        -0.019975669373
   11        261.377868690000         0.002007357011
   12        100.099321460000        -0.030412310743
   13         44.012139363000         0.010075904650
   14         10.854010739000         1.962958282733
   15          5.435193018200        -4.654551198341
   16          2.706280554200         6.194985194166
   17          1.319563340800        -5.743973102569
   18          0.580044559700         4.543207157829
   19          0.243299762600        -3.480562381218
   20          0.096823725100         1.882071888874
 P 20
    1      28609.335767000000        -0.000127359115
    2       6773.123636400000        -0.000603597710
    3       2199.801107900000        -0.002791360569
    4        841.502015900000        -0.010922590270
    5        356.921102880000        -0.036042559919
    6        162.711743510000        -0.095711480438
    7         78.004264994000        -0.191246922773
    8         38.682579997000        -0.258210898143
    9         19.589158685000        -0.190917841016
   10          9.799086341700        -0.053098396305
   11        261.377868690000         0.173553079885
   12        100.099321460000         1.926642109899
   13         44.012139363000        -2.183710738494
   14         10.854010739000         3.347985368151
   15          5.435193018200        -4.055242681837
   16          2.706280554200         3.123619626659
   17          1.319563340800        -1.772151003318
   18          0.580044559700         0.809215657531
   19          0.243299762600        -0.334909127212
   20          0.096823725100         0.095619280017
 P 20
    1      28609.335767000000        -0.002249352114
    2       6773.123636400000        -0.010660436698
    3       2199.801107900000        -0.049299595014
    4        841.502015900000        -0.192909251024
    5        356.921102880000        -0.636565417850
    6        162.711743510000        -1.690407636820
    7         78.004264994000        -3.377706177932
    8         38.682579997000        -4.560389956708
    9         19.589158685000        -3.371894102796
   10          9.799086341700        -0.937796951907
   11        261.377868690000         0.128311619510
   12        100.099321460000         4.687728629023
   13         44.012139363000         5.775452467613
   14         10.854010739000         6.177292725670
   15          5.435193018200        -4.290180984406
   16          2.706280554200         2.932388001293
   17          1.319563340800        -1.579661062871
   18          0.580044559700         0.702512906515
   19          0.243299762600        -0.286422768536
   20          0.096823725100         0.080950692211
 P 20
    1      28609.335767000000        -0.006175369885
    2       6773.123636400000        -0.029267156230
    3       2199.801107900000        -0.135347077259
    4        841.502015900000        -0.529612936875
    5        356.921102880000        -1.747626299262
    6        162.711743510000        -4.640844066834
    7         78.004264994000        -9.273152424260
    8         38.682579997000       -12.520091729386
    9         19.589158685000        -9.257195956824
   10          9.799086341700        -2.574627164097
   11        261.377868690000         5.918587755169
   12        100.099321460000         4.440499597719
   13         44.012139363000        21.359463138900
   14         10.854010739000        13.272051509243
   15          5.435193018200        -7.535286341182
   16          2.706280554200         4.902854980247
   17          1.319563340800        -2.580648018642
   18          0.580044559700         1.134576146614
   19          0.243299762600        -0.460160644578
   20          0.096823725100         0.129718376362
 D 10
    1        665.350573860000         0.000887376288
    2        200.179953660000         0.007595092712
    3         77.545085570000         0.037908818870
    4         33.677854345000         0.126216102399
    5         15.624928334000         0.291488288998
    6          7.442786742300         0.450964161927
    7          3.533607353500         0.470490108884
    8          1.636372514200        -0.438950614382
    9          0.678456847300         0.230200408459
   10          0.270000000000        -0.076130001048
 D 10
    1        665.350573860000         0.000315984213
    2        200.179953660000         0.002704522790
    3         77.545085570000         0.013498882563
    4         33.677854345000         0.044944063009
    5         15.624928334000         0.103795536213
    6          7.442786742300         0.160583010593
    7          3.533607353500         0.167535969635
    8          1.636372514200        -1.447509700546
    9          0.678456847300         0.474745991663
   10          0.270000000000        -0.145093019866
 D 10
    1        665.350573860000         0.000137222176
    2        200.179953660000         0.001174490643
    3         77.545085570000         0.005862147409
    4         33.677854345000         0.019517817219
    5         15.624928334000         0.045075192768
    6          7.442786742300         0.069736237432
    7          3.533607353500         0.072755692609
    8          1.636372514200        -1.075983805315
    9          0.678456847300         1.734052705607
   10          0.270000000000        -0.280604335304
 D 10
    1        665.350573860000         0.000058398972
    2        200.179953660000         0.000499839372
    3         77.545085570000         0.002494810918
    4         33.677854345000         0.008306386738
    5         15.624928334000         0.019183086880
    6          7.442786742300         0.029678326796
    7          3.533607353500         0.030963345615
    8          1.636372514200        -0.539576108910
    9          0.678456847300         1.357138550601
   10          0.270000000000        -1.544285050195
 F 4
    1         14.180116992000         0.488931731463
    2          4.539318368000         0.659558826368
    3          0.413000000000        -0.000841446031
    4          0.955700000000         0.008560740533
 F 4
    1         14.180116992000         0.571277791760
    2          4.539318368000        -0.304109975161
    3          0.413000000000         0.252566800231
    4          0.955700000000        -0.950012864524
 F 4
    1         14.180116992000         0.800913966016
    2          4.539318368000        -0.859539725729
    3          0.413000000000         0.320123886979
    4          0.955700000000         0.488061144253
 F 4
    1         14.180116992000         0.394698112645
    2          4.539318368000        -0.515147931323
    3          0.413000000000        -1.330453125571
    4          0.955700000000         0.995847661278
 G 1
    1          0.739500000000         1.000000000000
 end
  // -----------------------------------------------
  // The basis set
  // -----------------------------------------------
  BAS[ATNO] = new BFNGauss[NSH];
  // Basis function   1 L = s
  InitBFNGauss(BAS[ATNO][  0]);
  BAS[ATNO][  0].l  = 0;
  BAS[ATNO][  0].ng = 24;
  BAS[ATNO][  0].a[  0] =  11713823.007999999449;     BAS[ATNO][  0].d[  0] =         0.000033053663;
  BAS[ATNO][  0].a[  1] =   1755253.397899999982;     BAS[ATNO][  0].d[  1] =         0.000118322619;
  BAS[ATNO][  0].a[  2] =    399717.419240000017;     BAS[ATNO][  0].d[  2] =         0.000385319866;
  BAS[ATNO][  0].a[  3] =    113285.792600000001;     BAS[ATNO][  0].d[  3] =         0.001201256502;
  BAS[ATNO][  0].a[  4] =     36977.205292999999;     BAS[ATNO][  0].d[  4] =         0.003594051012;
  BAS[ATNO][  0].a[  5] =     13355.036580000000;     BAS[ATNO][  0].d[  5] =         0.010244053424;
  BAS[ATNO][  0].a[  6] =      5210.901298800000;     BAS[ATNO][  0].d[  6] =         0.027229083004;
  BAS[ATNO][  0].a[  7] =      2162.113702000000;     BAS[ATNO][  0].d[  7] =         0.065759035602;
  BAS[ATNO][  0].a[  8] =       943.292910230000;     BAS[ATNO][  0].d[  8] =         0.132523445194;
  BAS[ATNO][  0].a[  9] =       429.207243310000;     BAS[ATNO][  0].d[  9] =         0.231831719019;
  BAS[ATNO][  0].a[ 10] =       202.407208400000;     BAS[ATNO][  0].d[ 10] =         0.232605690616;
  BAS[ATNO][  0].a[ 11] =      3260.498552100000;     BAS[ATNO][  0].d[ 11] =         0.019814081275;
  BAS[ATNO][  0].a[ 12] =      1011.106971600000;     BAS[ATNO][  0].d[ 12] =         0.058924478262;
  BAS[ATNO][  0].a[ 13] =       392.443592730000;     BAS[ATNO][  0].d[ 13] =         0.108154729507;
  BAS[ATNO][  0].a[ 14] =       173.217021320000;     BAS[ATNO][  0].d[ 14] =         0.093120635075;
  BAS[ATNO][  0].a[ 15] =        96.619988467000;     BAS[ATNO][  0].d[ 15] =         0.150061338465;
  BAS[ATNO][  0].a[ 16] =        38.158284867000;     BAS[ATNO][  0].d[ 16] =         0.012944232774;
  BAS[ATNO][  0].a[ 17] =        18.959517570000;     BAS[ATNO][  0].d[ 17] =        -0.002538202098;
  BAS[ATNO][  0].a[ 18] =         9.250599619900;     BAS[ATNO][  0].d[ 18] =         0.000825324175;
  BAS[ATNO][  0].a[ 19] =         4.348651762100;     BAS[ATNO][  0].d[ 19] =        -0.000292603367;
  BAS[ATNO][  0].a[ 20] =         2.038032420900;     BAS[ATNO][  0].d[ 20] =         0.000103133145;
  BAS[ATNO][  0].a[ 21] =         0.691101525400;     BAS[ATNO][  0].d[ 21] =        -0.000039343291;
  BAS[ATNO][  0].a[ 22] =         0.335060651400;     BAS[ATNO][  0].d[ 22] =         0.000021792298;
  BAS[ATNO][  0].a[ 23] =         0.140744411200;     BAS[ATNO][  0].d[ 23] =        -0.000005345600;

  // Basis function   2 L = s
  InitBFNGauss(BAS[ATNO][  1]);
  BAS[ATNO][  1].l  = 0;
  BAS[ATNO][  1].ng = 24;
  BAS[ATNO][  1].a[  0] =  11713823.007999999449;     BAS[ATNO][  1].d[  0] =        -0.000011537393;
  BAS[ATNO][  1].a[  1] =   1755253.397899999982;     BAS[ATNO][  1].d[  1] =        -0.000041300552;
  BAS[ATNO][  1].a[  2] =    399717.419240000017;     BAS[ATNO][  1].d[  2] =        -0.000134496037;
  BAS[ATNO][  1].a[  3] =    113285.792600000001;     BAS[ATNO][  1].d[  3] =        -0.000419299012;
  BAS[ATNO][  1].a[  4] =     36977.205292999999;     BAS[ATNO][  1].d[  4] =        -0.001254504792;
  BAS[ATNO][  1].a[  5] =     13355.036580000000;     BAS[ATNO][  1].d[  5] =        -0.003575690513;
  BAS[ATNO][  1].a[  6] =      5210.901298800000;     BAS[ATNO][  1].d[  6] =        -0.009504321166;
  BAS[ATNO][  1].a[  7] =      2162.113702000000;     BAS[ATNO][  1].d[  7] =        -0.022953214908;
  BAS[ATNO][  1].a[  8] =       943.292910230000;     BAS[ATNO][  1].d[  8] =        -0.046257355967;
  BAS[ATNO][  1].a[  9] =       429.207243310000;     BAS[ATNO][  1].d[  9] =        -0.080920944482;
  BAS[ATNO][  1].a[ 10] =       202.407208400000;     BAS[ATNO][  1].d[ 10] =        -0.081191099545;
  BAS[ATNO][  1].a[ 11] =      3260.498552100000;     BAS[ATNO][  1].d[ 11] =        -0.008102022532;
  BAS[ATNO][  1].a[ 12] =      1011.106971600000;     BAS[ATNO][  1].d[ 12] =        -0.032691744562;
  BAS[ATNO][  1].a[ 13] =       392.443592730000;     BAS[ATNO][  1].d[ 13] =        -0.094319277336;
  BAS[ATNO][  1].a[ 14] =       173.217021320000;     BAS[ATNO][  1].d[ 14] =        -0.166303415057;
  BAS[ATNO][  1].a[ 15] =        96.619988467000;     BAS[ATNO][  1].d[ 15] =        -0.037026914094;
  BAS[ATNO][  1].a[ 16] =        38.158284867000;     BAS[ATNO][  1].d[ 16] =         0.575013733319;
  BAS[ATNO][  1].a[ 17] =        18.959517570000;     BAS[ATNO][  1].d[ 17] =         0.530058050539;
  BAS[ATNO][  1].a[ 18] =         9.250599619900;     BAS[ATNO][  1].d[ 18] =         0.061682595009;
  BAS[ATNO][  1].a[ 19] =         4.348651762100;     BAS[ATNO][  1].d[ 19] =        -0.002135673450;
  BAS[ATNO][  1].a[ 20] =         2.038032420900;     BAS[ATNO][  1].d[ 20] =         0.000456079312;
  BAS[ATNO][  1].a[ 21] =         0.691101525400;     BAS[ATNO][  1].d[ 21] =        -0.000121253887;
  BAS[ATNO][  1].a[ 22] =         0.335060651400;     BAS[ATNO][  1].d[ 22] =         0.000060601050;
  BAS[ATNO][  1].a[ 23] =         0.140744411200;     BAS[ATNO][  1].d[ 23] =        -0.000014026075;

  // Basis function   3 L = s
  InitBFNGauss(BAS[ATNO][  2]);
  BAS[ATNO][  2].l  = 0;
  BAS[ATNO][  2].ng = 24;
  BAS[ATNO][  2].a[  0] =  11713823.007999999449;     BAS[ATNO][  2].d[  0] =         0.000006226710;
  BAS[ATNO][  2].a[  1] =   1755253.397899999982;     BAS[ATNO][  2].d[  1] =         0.000022289832;
  BAS[ATNO][  2].a[  2] =    399717.419240000017;     BAS[ATNO][  2].d[  2] =         0.000072587265;
  BAS[ATNO][  2].a[  3] =    113285.792600000001;     BAS[ATNO][  2].d[  3] =         0.000226294908;
  BAS[ATNO][  2].a[  4] =     36977.205292999999;     BAS[ATNO][  2].d[  4] =         0.000677053936;
  BAS[ATNO][  2].a[  5] =     13355.036580000000;     BAS[ATNO][  2].d[  5] =         0.001929793612;
  BAS[ATNO][  2].a[  6] =      5210.901298800000;     BAS[ATNO][  2].d[  6] =         0.005129464703;
  BAS[ATNO][  2].a[  7] =      2162.113702000000;     BAS[ATNO][  2].d[  7] =         0.012387807991;
  BAS[ATNO][  2].a[  8] =       943.292910230000;     BAS[ATNO][  2].d[  8] =         0.024965010182;
  BAS[ATNO][  2].a[  9] =       429.207243310000;     BAS[ATNO][  2].d[  9] =         0.043672885333;
  BAS[ATNO][  2].a[ 10] =       202.407208400000;     BAS[ATNO][  2].d[ 10] =         0.043818687525;
  BAS[ATNO][  2].a[ 11] =      3260.498552100000;     BAS[ATNO][  2].d[ 11] =         0.004468109316;
  BAS[ATNO][  2].a[ 12] =      1011.106971600000;     BAS[ATNO][  2].d[ 12] =         0.019030959519;
  BAS[ATNO][  2].a[ 13] =       392.443592730000;     BAS[ATNO][  2].d[ 13] =         0.057370226878;
  BAS[ATNO][  2].a[ 14] =       173.217021320000;     BAS[ATNO][  2].d[ 14] =         0.114388801106;
  BAS[ATNO][  2].a[ 15] =        96.619988467000;     BAS[ATNO][  2].d[ 15] =         0.014878936629;
  BAS[ATNO][  2].a[ 16] =        38.158284867000;     BAS[ATNO][  2].d[ 16] =        -0.608249235298;
  BAS[ATNO][  2].a[ 17] =        18.959517570000;     BAS[ATNO][  2].d[ 17] =        -0.832862379965;
  BAS[ATNO][  2].a[ 18] =         9.250599619900;     BAS[ATNO][  2].d[ 18] =         1.025531622447;
  BAS[ATNO][  2].a[ 19] =         4.348651762100;     BAS[ATNO][  2].d[ 19] =         0.694946224562;
  BAS[ATNO][  2].a[ 20] =         2.038032420900;     BAS[ATNO][  2].d[ 20] =        -0.063932441108;
  BAS[ATNO][  2].a[ 21] =         0.691101525400;     BAS[ATNO][  2].d[ 21] =         0.025773788484;
  BAS[ATNO][  2].a[ 22] =         0.335060651400;     BAS[ATNO][  2].d[ 22] =        -0.014243584844;
  BAS[ATNO][  2].a[ 23] =         0.140744411200;     BAS[ATNO][  2].d[ 23] =         0.003472814674;

  // Basis function   4 L = s
  InitBFNGauss(BAS[ATNO][  3]);
  BAS[ATNO][  3].l  = 0;
  BAS[ATNO][  3].ng = 24;
  BAS[ATNO][  3].a[  0] =  11713823.007999999449;     BAS[ATNO][  3].d[  0] =         0.000004045448;
  BAS[ATNO][  3].a[  1] =   1755253.397899999982;     BAS[ATNO][  3].d[  1] =         0.000014481540;
  BAS[ATNO][  3].a[  2] =    399717.419240000017;     BAS[ATNO][  3].d[  2] =         0.000047159412;
  BAS[ATNO][  3].a[  3] =    113285.792600000001;     BAS[ATNO][  3].d[  3] =         0.000147022138;
  BAS[ATNO][  3].a[  4] =     36977.205292999999;     BAS[ATNO][  3].d[  4] =         0.000439876966;
  BAS[ATNO][  3].a[  5] =     13355.036580000000;     BAS[ATNO][  3].d[  5] =         0.001253772727;
  BAS[ATNO][  3].a[  6] =      5210.901298800000;     BAS[ATNO][  3].d[  6] =         0.003332575519;
  BAS[ATNO][  3].a[  7] =      2162.113702000000;     BAS[ATNO][  3].d[  7] =         0.008048267809;
  BAS[ATNO][  3].a[  8] =       943.292910230000;     BAS[ATNO][  3].d[  8] =         0.016219583637;
  BAS[ATNO][  3].a[  9] =       429.207243310000;     BAS[ATNO][  3].d[  9] =         0.028373952631;
  BAS[ATNO][  3].a[ 10] =       202.407208400000;     BAS[ATNO][  3].d[ 10] =         0.028468679243;
  BAS[ATNO][  3].a[ 11] =      3260.498552100000;     BAS[ATNO][  3].d[ 11] =         0.002800584510;
  BAS[ATNO][  3].a[ 12] =      1011.106971600000;     BAS[ATNO][  3].d[ 12] =         0.013213756399;
  BAS[ATNO][  3].a[ 13] =       392.443592730000;     BAS[ATNO][  3].d[ 13] =         0.035457108242;
  BAS[ATNO][  3].a[ 14] =       173.217021320000;     BAS[ATNO][  3].d[ 14] =         0.093494215147;
  BAS[ATNO][  3].a[ 15] =        96.619988467000;     BAS[ATNO][  3].d[ 15] =        -0.017565302800;
  BAS[ATNO][  3].a[ 16] =        38.158284867000;     BAS[ATNO][  3].d[ 16] =        -0.431144618272;
  BAS[ATNO][  3].a[ 17] =        18.959517570000;     BAS[ATNO][  3].d[ 17] =        -1.016855888440;
  BAS[ATNO][  3].a[ 18] =         9.250599619900;     BAS[ATNO][  3].d[ 18] =         2.257310850637;
  BAS[ATNO][  3].a[ 19] =         4.348651762100;     BAS[ATNO][  3].d[ 19] =         0.157766955535;
  BAS[ATNO][  3].a[ 20] =         2.038032420900;     BAS[ATNO][  3].d[ 20] =        -1.718630751680;
  BAS[ATNO][  3].a[ 21] =         0.691101525400;     BAS[ATNO][  3].d[ 21] =         0.180876682040;
  BAS[ATNO][  3].a[ 22] =         0.335060651400;     BAS[ATNO][  3].d[ 22] =        -0.098799759329;
  BAS[ATNO][  3].a[ 23] =         0.140744411200;     BAS[ATNO][  3].d[ 23] =         0.023624943299;

  // Basis function   5 L = s
  InitBFNGauss(BAS[ATNO][  4]);
  BAS[ATNO][  4].l  = 0;
  BAS[ATNO][  4].ng = 24;
  BAS[ATNO][  4].a[  0] =  11713823.007999999449;     BAS[ATNO][  4].d[  0] =         0.000002953317;
  BAS[ATNO][  4].a[  1] =   1755253.397899999982;     BAS[ATNO][  4].d[  1] =         0.000010572028;
  BAS[ATNO][  4].a[  2] =    399717.419240000017;     BAS[ATNO][  4].d[  2] =         0.000034428011;
  BAS[ATNO][  4].a[  3] =    113285.792600000001;     BAS[ATNO][  4].d[  3] =         0.000107331275;
  BAS[ATNO][  4].a[  4] =     36977.205292999999;     BAS[ATNO][  4].d[  4] =         0.000321125486;
  BAS[ATNO][  4].a[  5] =     13355.036580000000;     BAS[ATNO][  4].d[  5] =         0.000915297703;
  BAS[ATNO][  4].a[  6] =      5210.901298800000;     BAS[ATNO][  4].d[  6] =         0.002432896052;
  BAS[ATNO][  4].a[  7] =      2162.113702000000;     BAS[ATNO][  4].d[  7] =         0.005875515457;
  BAS[ATNO][  4].a[  8] =       943.292910230000;     BAS[ATNO][  4].d[  8] =         0.011840860249;
  BAS[ATNO][  4].a[  9] =       429.207243310000;     BAS[ATNO][  4].d[  9] =         0.020713972401;
  BAS[ATNO][  4].a[ 10] =       202.407208400000;     BAS[ATNO][  4].d[ 10] =         0.020783126123;
  BAS[ATNO][  4].a[ 11] =      3260.498552100000;     BAS[ATNO][  4].d[ 11] =         0.001769154290;
  BAS[ATNO][  4].a[ 12] =      1011.106971600000;     BAS[ATNO][  4].d[ 12] =         0.010970893605;
  BAS[ATNO][  4].a[ 13] =       392.443592730000;     BAS[ATNO][  4].d[ 13] =         0.018720779238;
  BAS[ATNO][  4].a[ 14] =       173.217021320000;     BAS[ATNO][  4].d[ 14] =         0.100452698041;
  BAS[ATNO][  4].a[ 15] =        96.619988467000;     BAS[ATNO][  4].d[ 15] =        -0.074549985346;
  BAS[ATNO][  4].a[ 16] =        38.158284867000;     BAS[ATNO][  4].d[ 16] =        -0.185899176100;
  BAS[ATNO][  4].a[ 17] =        18.959517570000;     BAS[ATNO][  4].d[ 17] =        -1.345821549227;
  BAS[ATNO][  4].a[ 18] =         9.250599619900;     BAS[ATNO][  4].d[ 18] =         3.550178397632;
  BAS[ATNO][  4].a[ 19] =         4.348651762100;     BAS[ATNO][  4].d[ 19] =        -2.427056534711;
  BAS[ATNO][  4].a[ 20] =         2.038032420900;     BAS[ATNO][  4].d[ 20] =        -1.040719043786;
  BAS[ATNO][  4].a[ 21] =         0.691101525400;     BAS[ATNO][  4].d[ 21] =         2.468825408980;
  BAS[ATNO][  4].a[ 22] =         0.335060651400;     BAS[ATNO][  4].d[ 22] =        -0.878871146355;
  BAS[ATNO][  4].a[ 23] =         0.140744411200;     BAS[ATNO][  4].d[ 23] =         0.184527358491;

  // Basis function   6 L = s
  InitBFNGauss(BAS[ATNO][  5]);
  BAS[ATNO][  5].l  = 0;
  BAS[ATNO][  5].ng = 24;
  BAS[ATNO][  5].a[  0] =  11713823.007999999449;     BAS[ATNO][  5].d[  0] =        -0.000002591396;
  BAS[ATNO][  5].a[  1] =   1755253.397899999982;     BAS[ATNO][  5].d[  1] =        -0.000009276452;
  BAS[ATNO][  5].a[  2] =    399717.419240000017;     BAS[ATNO][  5].d[  2] =        -0.000030208944;
  BAS[ATNO][  5].a[  3] =    113285.792600000001;     BAS[ATNO][  5].d[  3] =        -0.000094178095;
  BAS[ATNO][  5].a[  4] =     36977.205292999999;     BAS[ATNO][  5].d[  4] =        -0.000281772358;
  BAS[ATNO][  5].a[  5] =     13355.036580000000;     BAS[ATNO][  5].d[  5] =        -0.000803130251;
  BAS[ATNO][  5].a[  6] =      5210.901298800000;     BAS[ATNO][  5].d[  6] =        -0.002134750705;
  BAS[ATNO][  5].a[  7] =      2162.113702000000;     BAS[ATNO][  5].d[  7] =        -0.005155485683;
  BAS[ATNO][  5].a[  8] =       943.292910230000;     BAS[ATNO][  5].d[  8] =        -0.010389792340;
  BAS[ATNO][  5].a[  9] =       429.207243310000;     BAS[ATNO][  5].d[  9] =        -0.018175526716;
  BAS[ATNO][  5].a[ 10] =       202.407208400000;     BAS[ATNO][  5].d[ 10] =        -0.018236205821;
  BAS[ATNO][  5].a[ 11] =      3260.498552100000;     BAS[ATNO][  5].d[ 11] =        -0.001277389632;
  BAS[ATNO][  5].a[ 12] =      1011.106971600000;     BAS[ATNO][  5].d[ 12] =        -0.010878965739;
  BAS[ATNO][  5].a[ 13] =       392.443592730000;     BAS[ATNO][  5].d[ 13] =        -0.009066146928;
  BAS[ATNO][  5].a[ 14] =       173.217021320000;     BAS[ATNO][  5].d[ 14] =        -0.119179207170;
  BAS[ATNO][  5].a[ 15] =        96.619988467000;     BAS[ATNO][  5].d[ 15] =         0.127485646854;
  BAS[ATNO][  5].a[ 16] =        38.158284867000;     BAS[ATNO][  5].d[ 16] =         0.006815340514;
  BAS[ATNO][  5].a[ 17] =        18.959517570000;     BAS[ATNO][  5].d[ 17] =         1.767256063768;
  BAS[ATNO][  5].a[ 18] =         9.250599619900;     BAS[ATNO][  5].d[ 18] =        -4.984431145331;
  BAS[ATNO][  5].a[ 19] =         4.348651762100;     BAS[ATNO][  5].d[ 19] =         5.972567948821;
  BAS[ATNO][  5].a[ 20] =         2.038032420900;     BAS[ATNO][  5].d[ 20] =        -3.021701835815;
  BAS[ATNO][  5].a[ 21] =         0.691101525400;     BAS[ATNO][  5].d[ 21] =        -1.464508200238;
  BAS[ATNO][  5].a[ 22] =         0.335060651400;     BAS[ATNO][  5].d[ 22] =         2.632589084733;
  BAS[ATNO][  5].a[ 23] =         0.140744411200;     BAS[ATNO][  5].d[ 23] =        -0.483037103701;

  // Basis function   7 L = s
  InitBFNGauss(BAS[ATNO][  6]);
  BAS[ATNO][  6].l  = 0;
  BAS[ATNO][  6].ng = 24;
  BAS[ATNO][  6].a[  0] =  11713823.007999999449;     BAS[ATNO][  6].d[  0] =        -0.000002767942;
  BAS[ATNO][  6].a[  1] =   1755253.397899999982;     BAS[ATNO][  6].d[  1] =        -0.000009908438;
  BAS[ATNO][  6].a[  2] =    399717.419240000017;     BAS[ATNO][  6].d[  2] =        -0.000032267016;
  BAS[ATNO][  6].a[  3] =    113285.792600000001;     BAS[ATNO][  6].d[  3] =        -0.000100594250;
  BAS[ATNO][  6].a[  4] =     36977.205292999999;     BAS[ATNO][  6].d[  4] =        -0.000300968915;
  BAS[ATNO][  6].a[  5] =     13355.036580000000;     BAS[ATNO][  6].d[  5] =        -0.000857845821;
  BAS[ATNO][  6].a[  6] =      5210.901298800000;     BAS[ATNO][  6].d[  6] =        -0.002280186767;
  BAS[ATNO][  6].a[  7] =      2162.113702000000;     BAS[ATNO][  6].d[  7] =        -0.005506718046;
  BAS[ATNO][  6].a[  8] =       943.292910230000;     BAS[ATNO][  6].d[  8] =        -0.011097626973;
  BAS[ATNO][  6].a[  9] =       429.207243310000;     BAS[ATNO][  6].d[  9] =        -0.019413787004;
  BAS[ATNO][  6].a[ 10] =       202.407208400000;     BAS[ATNO][  6].d[ 10] =        -0.019478600050;
  BAS[ATNO][  6].a[ 11] =      3260.498552100000;     BAS[ATNO][  6].d[ 11] =        -0.001270194858;
  BAS[ATNO][  6].a[ 12] =      1011.106971600000;     BAS[ATNO][  6].d[ 12] =        -0.012068643510;
  BAS[ATNO][  6].a[ 13] =       392.443592730000;     BAS[ATNO][  6].d[ 13] =        -0.007170221072;
  BAS[ATNO][  6].a[ 14] =       173.217021320000;     BAS[ATNO][  6].d[ 14] =        -0.138709478714;
  BAS[ATNO][  6].a[ 15] =        96.619988467000;     BAS[ATNO][  6].d[ 15] =         0.159096137216;
  BAS[ATNO][  6].a[ 16] =        38.158284867000;     BAS[ATNO][  6].d[ 16] =        -0.050188283151;
[...]
  BAS[ATNO][ 20].a[ 12] =        44.012139363000;     BAS[ATNO][ 20].d[ 12] =         0.013320447585;
  BAS[ATNO][ 20].a[ 13] =        10.854010739000;     BAS[ATNO][ 20].d[ 13] =         2.348652057090;
  BAS[ATNO][ 20].a[ 14] =         5.435193018200;     BAS[ATNO][ 20].d[ 14] =        -5.327857519651;
  BAS[ATNO][ 20].a[ 15] =         2.706280554200;     BAS[ATNO][ 20].d[ 15] =         6.502197178801;
  BAS[ATNO][ 20].a[ 16] =         1.319563340800;     BAS[ATNO][ 20].d[ 16] =        -5.023280859347;
  BAS[ATNO][ 20].a[ 17] =         0.580044559700;     BAS[ATNO][ 20].d[ 17] =         2.458586876165;
  BAS[ATNO][ 20].a[ 18] =         0.243299762600;     BAS[ATNO][ 20].d[ 18] =        -0.188294190464;
  BAS[ATNO][ 20].a[ 19] =         0.096823725100;     BAS[ATNO][ 20].d[ 19] =        -0.870724787742;

  // Basis function  22 L = p
  InitBFNGauss(BAS[ATNO][ 21]);
  BAS[ATNO][ 21].l  = 1;
  BAS[ATNO][ 21].ng = 20;
  BAS[ATNO][ 21].a[  0] =     28609.335767000000;     BAS[ATNO][ 21].d[  0] =        -0.000047912625;
  BAS[ATNO][ 21].a[  1] =      6773.123636400000;     BAS[ATNO][ 21].d[  1] =        -0.000227074057;
  BAS[ATNO][ 21].a[  2] =      2199.801107900000;     BAS[ATNO][ 21].d[  2] =        -0.001050112616;
  BAS[ATNO][ 21].a[  3] =       841.502015900000;     BAS[ATNO][ 21].d[  3] =        -0.004109089297;
  BAS[ATNO][ 21].a[  4] =       356.921102880000;     BAS[ATNO][ 21].d[  4] =        -0.013559246802;
  BAS[ATNO][ 21].a[  5] =       162.711743510000;     BAS[ATNO][ 21].d[  5] =        -0.036006753904;
  BAS[ATNO][ 21].a[  6] =        78.004264994000;     BAS[ATNO][ 21].d[  6] =        -0.071947282099;
  BAS[ATNO][ 21].a[  7] =        38.682579997000;     BAS[ATNO][ 21].d[  7] =        -0.097139196073;
  BAS[ATNO][ 21].a[  8] =        19.589158685000;     BAS[ATNO][ 21].d[  8] =        -0.071823481215;
  BAS[ATNO][ 21].a[  9] =         9.799086341700;     BAS[ATNO][ 21].d[  9] =        -0.019975669373;
  BAS[ATNO][ 21].a[ 10] =       261.377868690000;     BAS[ATNO][ 21].d[ 10] =         0.002007357011;
  BAS[ATNO][ 21].a[ 11] =       100.099321460000;     BAS[ATNO][ 21].d[ 11] =        -0.030412310743;
  BAS[ATNO][ 21].a[ 12] =        44.012139363000;     BAS[ATNO][ 21].d[ 12] =         0.010075904650;
  BAS[ATNO][ 21].a[ 13] =        10.854010739000;     BAS[ATNO][ 21].d[ 13] =         1.962958282733;
  BAS[ATNO][ 21].a[ 14] =         5.435193018200;     BAS[ATNO][ 21].d[ 14] =        -4.654551198341;
  BAS[ATNO][ 21].a[ 15] =         2.706280554200;     BAS[ATNO][ 21].d[ 15] =         6.194985194166;
  BAS[ATNO][ 21].a[ 16] =         1.319563340800;     BAS[ATNO][ 21].d[ 16] =        -5.743973102569;
  BAS[ATNO][ 21].a[ 17] =         0.580044559700;     BAS[ATNO][ 21].d[ 17] =         4.543207157829;
  BAS[ATNO][ 21].a[ 18] =         0.243299762600;     BAS[ATNO][ 21].d[ 18] =        -3.480562381218;
  BAS[ATNO][ 21].a[ 19] =         0.096823725100;     BAS[ATNO][ 21].d[ 19] =         1.882071888874;

  // Basis function  23 L = p
  InitBFNGauss(BAS[ATNO][ 22]);
  BAS[ATNO][ 22].l  = 1;
  BAS[ATNO][ 22].ng = 20;
  BAS[ATNO][ 22].a[  0] =     28609.335767000000;     BAS[ATNO][ 22].d[  0] =         0.000127359115;
  BAS[ATNO][ 22].a[  1] =      6773.123636400000;     BAS[ATNO][ 22].d[  1] =         0.000603597710;
  BAS[ATNO][ 22].a[  2] =      2199.801107900000;     BAS[ATNO][ 22].d[  2] =         0.002791360569;
  BAS[ATNO][ 22].a[  3] =       841.502015900000;     BAS[ATNO][ 22].d[  3] =         0.010922590270;
  BAS[ATNO][ 22].a[  4] =       356.921102880000;     BAS[ATNO][ 22].d[  4] =         0.036042559919;
  BAS[ATNO][ 22].a[  5] =       162.711743510000;     BAS[ATNO][ 22].d[  5] =         0.095711480438;
  BAS[ATNO][ 22].a[  6] =        78.004264994000;     BAS[ATNO][ 22].d[  6] =         0.191246922773;
  BAS[ATNO][ 22].a[  7] =        38.682579997000;     BAS[ATNO][ 22].d[  7] =         0.258210898143;
  BAS[ATNO][ 22].a[  8] =        19.589158685000;     BAS[ATNO][ 22].d[  8] =         0.190917841016;
  BAS[ATNO][ 22].a[  9] =         9.799086341700;     BAS[ATNO][ 22].d[  9] =         0.053098396305;
  BAS[ATNO][ 22].a[ 10] =       261.377868690000;     BAS[ATNO][ 22].d[ 10] =        -0.173553079885;
  BAS[ATNO][ 22].a[ 11] =       100.099321460000;     BAS[ATNO][ 22].d[ 11] =        -1.926642109899;
  BAS[ATNO][ 22].a[ 12] =        44.012139363000;     BAS[ATNO][ 22].d[ 12] =         2.183710738494;
  BAS[ATNO][ 22].a[ 13] =        10.854010739000;     BAS[ATNO][ 22].d[ 13] =        -3.347985368151;
  BAS[ATNO][ 22].a[ 14] =         5.435193018200;     BAS[ATNO][ 22].d[ 14] =         4.055242681837;
  BAS[ATNO][ 22].a[ 15] =         2.706280554200;     BAS[ATNO][ 22].d[ 15] =        -3.123619626659;
  BAS[ATNO][ 22].a[ 16] =         1.319563340800;     BAS[ATNO][ 22].d[ 16] =         1.772151003318;
  BAS[ATNO][ 22].a[ 17] =         0.580044559700;     BAS[ATNO][ 22].d[ 17] =        -0.809215657531;
  BAS[ATNO][ 22].a[ 18] =         0.243299762600;     BAS[ATNO][ 22].d[ 18] =         0.334909127212;
  BAS[ATNO][ 22].a[ 19] =         0.096823725100;     BAS[ATNO][ 22].d[ 19] =        -0.095619280017;

  // Basis function  24 L = p
  InitBFNGauss(BAS[ATNO][ 23]);
  BAS[ATNO][ 23].l  = 1;
  BAS[ATNO][ 23].ng = 20;
  BAS[ATNO][ 23].a[  0] =     28609.335767000000;     BAS[ATNO][ 23].d[  0] =        -0.002249352114;
  BAS[ATNO][ 23].a[  1] =      6773.123636400000;     BAS[ATNO][ 23].d[  1] =        -0.010660436698;
  BAS[ATNO][ 23].a[  2] =      2199.801107900000;     BAS[ATNO][ 23].d[  2] =        -0.049299595014;
  BAS[ATNO][ 23].a[  3] =       841.502015900000;     BAS[ATNO][ 23].d[  3] =        -0.192909251024;
  BAS[ATNO][ 23].a[  4] =       356.921102880000;     BAS[ATNO][ 23].d[  4] =        -0.636565417850;
  BAS[ATNO][ 23].a[  5] =       162.711743510000;     BAS[ATNO][ 23].d[  5] =        -1.690407636820;
  BAS[ATNO][ 23].a[  6] =        78.004264994000;     BAS[ATNO][ 23].d[  6] =        -3.377706177932;
  BAS[ATNO][ 23].a[  7] =        38.682579997000;     BAS[ATNO][ 23].d[  7] =        -4.560389956708;
  BAS[ATNO][ 23].a[  8] =        19.589158685000;     BAS[ATNO][ 23].d[  8] =        -3.371894102796;
  BAS[ATNO][ 23].a[  9] =         9.799086341700;     BAS[ATNO][ 23].d[  9] =        -0.937796951907;
  BAS[ATNO][ 23].a[ 10] =       261.377868690000;     BAS[ATNO][ 23].d[ 10] =         0.128311619510;
  BAS[ATNO][ 23].a[ 11] =       100.099321460000;     BAS[ATNO][ 23].d[ 11] =         4.687728629023;
  BAS[ATNO][ 23].a[ 12] =        44.012139363000;     BAS[ATNO][ 23].d[ 12] =         5.775452467613;
  BAS[ATNO][ 23].a[ 13] =        10.854010739000;     BAS[ATNO][ 23].d[ 13] =         6.177292725670;
  BAS[ATNO][ 23].a[ 14] =         5.435193018200;     BAS[ATNO][ 23].d[ 14] =        -4.290180984406;
  BAS[ATNO][ 23].a[ 15] =         2.706280554200;     BAS[ATNO][ 23].d[ 15] =         2.932388001293;
  BAS[ATNO][ 23].a[ 16] =         1.319563340800;     BAS[ATNO][ 23].d[ 16] =        -1.579661062871;
  BAS[ATNO][ 23].a[ 17] =         0.580044559700;     BAS[ATNO][ 23].d[ 17] =         0.702512906515;
  BAS[ATNO][ 23].a[ 18] =         0.243299762600;     BAS[ATNO][ 23].d[ 18] =        -0.286422768536;
  BAS[ATNO][ 23].a[ 19] =         0.096823725100;     BAS[ATNO][ 23].d[ 19] =         0.080950692211;

  // Basis function  25 L = p
  InitBFNGauss(BAS[ATNO][ 24]);
  BAS[ATNO][ 24].l  = 1;
  BAS[ATNO][ 24].ng = 20;
  BAS[ATNO][ 24].a[  0] =     28609.335767000000;     BAS[ATNO][ 24].d[  0] =        -0.006175369885;
  BAS[ATNO][ 24].a[  1] =      6773.123636400000;     BAS[ATNO][ 24].d[  1] =        -0.029267156230;
  BAS[ATNO][ 24].a[  2] =      2199.801107900000;     BAS[ATNO][ 24].d[  2] =        -0.135347077259;
  BAS[ATNO][ 24].a[  3] =       841.502015900000;     BAS[ATNO][ 24].d[  3] =        -0.529612936875;
  BAS[ATNO][ 24].a[  4] =       356.921102880000;     BAS[ATNO][ 24].d[  4] =        -1.747626299262;
  BAS[ATNO][ 24].a[  5] =       162.711743510000;     BAS[ATNO][ 24].d[  5] =        -4.640844066834;
  BAS[ATNO][ 24].a[  6] =        78.004264994000;     BAS[ATNO][ 24].d[  6] =        -9.273152424260;
  BAS[ATNO][ 24].a[  7] =        38.682579997000;     BAS[ATNO][ 24].d[  7] =       -12.520091729386;
  BAS[ATNO][ 24].a[  8] =        19.589158685000;     BAS[ATNO][ 24].d[  8] =        -9.257195956824;
  BAS[ATNO][ 24].a[  9] =         9.799086341700;     BAS[ATNO][ 24].d[  9] =        -2.574627164097;
  BAS[ATNO][ 24].a[ 10] =       261.377868690000;     BAS[ATNO][ 24].d[ 10] =         5.918587755169;
  BAS[ATNO][ 24].a[ 11] =       100.099321460000;     BAS[ATNO][ 24].d[ 11] =         4.440499597719;
  BAS[ATNO][ 24].a[ 12] =        44.012139363000;     BAS[ATNO][ 24].d[ 12] =        21.359463138900;
  BAS[ATNO][ 24].a[ 13] =        10.854010739000;     BAS[ATNO][ 24].d[ 13] =        13.272051509243;
  BAS[ATNO][ 24].a[ 14] =         5.435193018200;     BAS[ATNO][ 24].d[ 14] =        -7.535286341182;
  BAS[ATNO][ 24].a[ 15] =         2.706280554200;     BAS[ATNO][ 24].d[ 15] =         4.902854980247;
  BAS[ATNO][ 24].a[ 16] =         1.319563340800;     BAS[ATNO][ 24].d[ 16] =        -2.580648018642;
  BAS[ATNO][ 24].a[ 17] =         0.580044559700;     BAS[ATNO][ 24].d[ 17] =         1.134576146614;
  BAS[ATNO][ 24].a[ 18] =         0.243299762600;     BAS[ATNO][ 24].d[ 18] =        -0.460160644578;
  BAS[ATNO][ 24].a[ 19] =         0.096823725100;     BAS[ATNO][ 24].d[ 19] =         0.129718376362;

  // Basis function  26 L = d
  InitBFNGauss(BAS[ATNO][ 25]);
  BAS[ATNO][ 25].l  = 2;
  BAS[ATNO][ 25].ng = 10;
  BAS[ATNO][ 25].a[  0] =       665.350573860000;     BAS[ATNO][ 25].d[  0] =         0.000887376288;
  BAS[ATNO][ 25].a[  1] =       200.179953660000;     BAS[ATNO][ 25].d[  1] =         0.007595092712;
  BAS[ATNO][ 25].a[  2] =        77.545085570000;     BAS[ATNO][ 25].d[  2] =         0.037908818870;
  BAS[ATNO][ 25].a[  3] =        33.677854345000;     BAS[ATNO][ 25].d[  3] =         0.126216102399;
  BAS[ATNO][ 25].a[  4] =        15.624928334000;     BAS[ATNO][ 25].d[  4] =         0.291488288998;
  BAS[ATNO][ 25].a[  5] =         7.442786742300;     BAS[ATNO][ 25].d[  5] =         0.450964161927;
  BAS[ATNO][ 25].a[  6] =         3.533607353500;     BAS[ATNO][ 25].d[  6] =         0.470490108884;
  BAS[ATNO][ 25].a[  7] =         1.636372514200;     BAS[ATNO][ 25].d[  7] =        -0.438950614382;
  BAS[ATNO][ 25].a[  8] =         0.678456847300;     BAS[ATNO][ 25].d[  8] =         0.230200408459;
  BAS[ATNO][ 25].a[  9] =         0.270000000000;     BAS[ATNO][ 25].d[  9] =        -0.076130001048;

  // Basis function  27 L = d
  InitBFNGauss(BAS[ATNO][ 26]);
  BAS[ATNO][ 26].l  = 2;
  BAS[ATNO][ 26].ng = 10;
  BAS[ATNO][ 26].a[  0] =       665.350573860000;     BAS[ATNO][ 26].d[  0] =        -0.000315984213;
  BAS[ATNO][ 26].a[  1] =       200.179953660000;     BAS[ATNO][ 26].d[  1] =        -0.002704522790;
  BAS[ATNO][ 26].a[  2] =        77.545085570000;     BAS[ATNO][ 26].d[  2] =        -0.013498882563;
  BAS[ATNO][ 26].a[  3] =        33.677854345000;     BAS[ATNO][ 26].d[  3] =        -0.044944063009;
  BAS[ATNO][ 26].a[  4] =        15.624928334000;     BAS[ATNO][ 26].d[  4] =        -0.103795536213;
  BAS[ATNO][ 26].a[  5] =         7.442786742300;     BAS[ATNO][ 26].d[  5] =        -0.160583010593;
  BAS[ATNO][ 26].a[  6] =         3.533607353500;     BAS[ATNO][ 26].d[  6] =        -0.167535969635;
  BAS[ATNO][ 26].a[  7] =         1.636372514200;     BAS[ATNO][ 26].d[  7] =         1.447509700546;
  BAS[ATNO][ 26].a[  8] =         0.678456847300;     BAS[ATNO][ 26].d[  8] =        -0.474745991663;
  BAS[ATNO][ 26].a[  9] =         0.270000000000;     BAS[ATNO][ 26].d[  9] =         0.145093019866;

  // Basis function  28 L = d
  InitBFNGauss(BAS[ATNO][ 27]);
  BAS[ATNO][ 27].l  = 2;
  BAS[ATNO][ 27].ng = 10;
  BAS[ATNO][ 27].a[  0] =       665.350573860000;     BAS[ATNO][ 27].d[  0] =         0.000137222176;
  BAS[ATNO][ 27].a[  1] =       200.179953660000;     BAS[ATNO][ 27].d[  1] =         0.001174490643;
  BAS[ATNO][ 27].a[  2] =        77.545085570000;     BAS[ATNO][ 27].d[  2] =         0.005862147409;
  BAS[ATNO][ 27].a[  3] =        33.677854345000;     BAS[ATNO][ 27].d[  3] =         0.019517817219;
  BAS[ATNO][ 27].a[  4] =        15.624928334000;     BAS[ATNO][ 27].d[  4] =         0.045075192768;
  BAS[ATNO][ 27].a[  5] =         7.442786742300;     BAS[ATNO][ 27].d[  5] =         0.069736237432;
  BAS[ATNO][ 27].a[  6] =         3.533607353500;     BAS[ATNO][ 27].d[  6] =         0.072755692609;
  BAS[ATNO][ 27].a[  7] =         1.636372514200;     BAS[ATNO][ 27].d[  7] =        -1.075983805315;
  BAS[ATNO][ 27].a[  8] =         0.678456847300;     BAS[ATNO][ 27].d[  8] =         1.734052705607;
  BAS[ATNO][ 27].a[  9] =         0.270000000000;     BAS[ATNO][ 27].d[  9] =        -0.280604335304;

  // Basis function  29 L = d
  InitBFNGauss(BAS[ATNO][ 28]);
  BAS[ATNO][ 28].l  = 2;
  BAS[ATNO][ 28].ng = 10;
  BAS[ATNO][ 28].a[  0] =       665.350573860000;     BAS[ATNO][ 28].d[  0] =        -0.000058398972;
  BAS[ATNO][ 28].a[  1] =       200.179953660000;     BAS[ATNO][ 28].d[  1] =        -0.000499839372;
  BAS[ATNO][ 28].a[  2] =        77.545085570000;     BAS[ATNO][ 28].d[  2] =        -0.002494810918;
  BAS[ATNO][ 28].a[  3] =        33.677854345000;     BAS[ATNO][ 28].d[  3] =        -0.008306386738;
  BAS[ATNO][ 28].a[  4] =        15.624928334000;     BAS[ATNO][ 28].d[  4] =        -0.019183086880;
  BAS[ATNO][ 28].a[  5] =         7.442786742300;     BAS[ATNO][ 28].d[  5] =        -0.029678326796;
  BAS[ATNO][ 28].a[  6] =         3.533607353500;     BAS[ATNO][ 28].d[  6] =        -0.030963345615;
  BAS[ATNO][ 28].a[  7] =         1.636372514200;     BAS[ATNO][ 28].d[  7] =         0.539576108910;
  BAS[ATNO][ 28].a[  8] =         0.678456847300;     BAS[ATNO][ 28].d[  8] =        -1.357138550601;
  BAS[ATNO][ 28].a[  9] =         0.270000000000;     BAS[ATNO][ 28].d[  9] =         1.544285050195;

  // Basis function  30 L = f
  InitBFNGauss(BAS[ATNO][ 29]);
  BAS[ATNO][ 29].l  = 3;
  BAS[ATNO][ 29].ng = 4;
  BAS[ATNO][ 29].a[  0] =        14.180116992000;     BAS[ATNO][ 29].d[  0] =         0.488931731463;
  BAS[ATNO][ 29].a[  1] =         4.539318368000;     BAS[ATNO][ 29].d[  1] =         0.659558826368;
  BAS[ATNO][ 29].a[  2] =         0.413000000000;     BAS[ATNO][ 29].d[  2] =        -0.000841446031;
  BAS[ATNO][ 29].a[  3] =         0.955700000000;     BAS[ATNO][ 29].d[  3] =         0.008560740533;

  // Basis function  31 L = f
  InitBFNGauss(BAS[ATNO][ 30]);
  BAS[ATNO][ 30].l  = 3;
  BAS[ATNO][ 30].ng = 4;
  BAS[ATNO][ 30].a[  0] =        14.180116992000;     BAS[ATNO][ 30].d[  0] =        -0.571277791760;
  BAS[ATNO][ 30].a[  1] =         4.539318368000;     BAS[ATNO][ 30].d[  1] =         0.304109975161;
  BAS[ATNO][ 30].a[  2] =         0.413000000000;     BAS[ATNO][ 30].d[  2] =        -0.252566800231;
  BAS[ATNO][ 30].a[  3] =         0.955700000000;     BAS[ATNO][ 30].d[  3] =         0.950012864524;

  // Basis function  32 L = f
  InitBFNGauss(BAS[ATNO][ 31]);
  BAS[ATNO][ 31].l  = 3;
  BAS[ATNO][ 31].ng = 4;
  BAS[ATNO][ 31].a[  0] =        14.180116992000;     BAS[ATNO][ 31].d[  0] =        -0.800913966016;
  BAS[ATNO][ 31].a[  1] =         4.539318368000;     BAS[ATNO][ 31].d[  1] =         0.859539725729;
  BAS[ATNO][ 31].a[  2] =         0.413000000000;     BAS[ATNO][ 31].d[  2] =        -0.320123886979;
  BAS[ATNO][ 31].a[  3] =         0.955700000000;     BAS[ATNO][ 31].d[  3] =        -0.488061144253;

  // Basis function  33 L = f
  InitBFNGauss(BAS[ATNO][ 32]);
  BAS[ATNO][ 32].l  = 3;
  BAS[ATNO][ 32].ng = 4;
  BAS[ATNO][ 32].a[  0] =        14.180116992000;     BAS[ATNO][ 32].d[  0] =        -0.394698112645;
  BAS[ATNO][ 32].a[  1] =         4.539318368000;     BAS[ATNO][ 32].d[  1] =         0.515147931323;
  BAS[ATNO][ 32].a[  2] =         0.413000000000;     BAS[ATNO][ 32].d[  2] =         1.330453125571;
  BAS[ATNO][ 32].a[  3] =         0.955700000000;     BAS[ATNO][ 32].d[  3] =        -0.995847661278;

  // Basis function  34 L = g
  InitBFNGauss(BAS[ATNO][ 33]);
  BAS[ATNO][ 33].l  = 4;
  BAS[ATNO][ 33].ng = 1;
  BAS[ATNO][ 33].a[  0] =         0.739500000000;     BAS[ATNO][ 33].d[  0] =         1.000000000000;

-------
TIMINGS
-------

Total SCF time: 0 days 0 hours 0 min 2 sec 

Total time                  ....       2.294 sec
Sum of individual times     ....       2.093 sec  ( 91.2%)

Fock matrix formation       ....       1.350 sec  ( 58.9%)
  XC integration            ....       0.058 sec  (  4.3% of F)
    Basis function eval.    ....       0.008 sec  ( 14.3% of XC)
    Density eval.           ....       0.005 sec  (  7.8% of XC)
    XC-Functional eval.     ....       0.002 sec  (  4.0% of XC)
    XC-Potential eval.      ....       0.009 sec  ( 15.1% of XC)
Diagonalization             ....       0.006 sec  (  0.3%)
Density matrix formation    ....       0.002 sec  (  0.1%)
Population analysis         ....       0.001 sec  (  0.1%)
Initial guess               ....       0.073 sec  (  3.2%)
Orbital Transformation      ....       0.000 sec  (  0.0%)
Orbital Orthonormalization  ....       0.000 sec  (  0.0%)
DIIS solution               ....       0.001 sec  (  0.0%)
SOSCF solution              ....       0.002 sec  (  0.1%)
Grid generation             ....       0.658 sec  ( 28.7%)

-------------------------   --------------------
FINAL SINGLE POINT ENERGY     -1270.546484785473
-------------------------   --------------------


                            ***************************************
                            *     ORCA property calculations      *
                            ***************************************

                                    ---------------------
                                    Active property flags
                                    ---------------------
   (+) Dipole Moment


------------------------------------------------------------------------------
                       ORCA ELECTRIC PROPERTIES CALCULATION
------------------------------------------------------------------------------

Dipole Moment Calculation                       ... on
Quadrupole Moment Calculation                   ... off
Polarizability Calculation                      ... off
GBWName                                         ... Kr_zora-def2-qzvpp_4385.151648_.gbw
Electron density file                           ... Kr_zora-def2-qzvpp_4385.151648_.scfp
The origin for moment calculation is the CENTER OF MASS  = ( 0.000000,  0.000000  0.000000)

-------------
DIPOLE MOMENT
-------------
                                X             Y             Z
Electronic contribution:     -0.00000      -0.00000      -0.00000
Nuclear contribution   :      0.00000       0.00000       0.00000
                        -----------------------------------------
Total Dipole Moment    :     -0.00000      -0.00000      -0.00000
                        -----------------------------------------
Magnitude (a.u.)       :      0.00000
Magnitude (Debye)      :      0.00000



--------------------
Rotational spectrum 
--------------------
 
Rotational constants in cm-1:     0.000000     0.000000     0.000000 
Rotational constants in MHz :     0.000000     0.000000     0.000000 

 Dipole components along the rotational axes: 
x,y,z [a.u.] :    -0.000000    -0.000000    -0.000000 
x,y,z [Debye]:    -0.000000    -0.000000    -0.000000 

 

Timings for individual modules:

Sum of individual times         ...        3.613 sec (=   0.060 min)
GTO integral calculation        ...        0.571 sec (=   0.010 min)  15.8 %
Relativistic integrals          ...        0.491 sec (=   0.008 min)  13.6 %
SCF iterations                  ...        2.551 sec (=   0.043 min)  70.6 %
                             ****ORCA TERMINATED NORMALLY****
TOTAL RUN TIME: 0 days 0 hours 0 minutes 3 seconds 961 msec
