
                                 *****************
                                 * O   R   C   A *
                                 *****************

           --- An Ab Initio, DFT and Semiempirical electronic structure package ---

                  #######################################################
                  #                        -***-                        #
                  #          Department of theory and spectroscopy      #
                  #               Directorship: Frank Neese             #
                  #        Max Planck Institute fuer Kohlenforschung    #
                  #                Kaiser Wilhelm Platz 1               #
                  #                 D-45470 Muelheim/Ruhr               #
                  #                      Germany                        #
                  #                                                     #
                  #                  All rights reserved                #
                  #                        -***-                        #
                  #######################################################


                         Program Version 4.2.1 -  RELEASE  -


 With contributions from (in alphabetic order):
   Daniel Aravena         : Magnetic Suceptibility
   Michael Atanasov       : Ab Initio Ligand Field Theory (pilot matlab implementation)
   Alexander A. Auer      : GIAO ZORA, VPT2
   Ute Becker             : Parallelization
   Giovanni Bistoni       : ED, misc. LED, open-shell LED, HFLD
   Martin Brehm           : Molecular dynamics
   Dmytro Bykov           : SCF Hessian
   Vijay G. Chilkuri      : MRCI spin determinant printing, contributions to CSF-ICE
   Dipayan Datta          : RHF DLPNO-CCSD density
   Achintya Kumar Dutta   : EOM-CC, STEOM-CC
   Dmitry Ganyushin       : Spin-Orbit,Spin-Spin,Magnetic field MRCI
   Miquel Garcia          : C-PCM Hessian, Gaussian charge scheme
   Yang Guo               : DLPNO-NEVPT2, CIM, IAO-localization
   Andreas Hansen         : Spin unrestricted coupled pair/coupled cluster methods
   Benjamin Helmich-Paris : CASSCF linear response (MC-RPA)
   Lee Huntington         : MR-EOM, pCC
   Robert Izsak           : Overlap fitted RIJCOSX, COSX-SCS-MP3, EOM
   Christian Kollmar      : KDIIS, OOCD, Brueckner-CCSD(T), CCSD density
   Simone Kossmann        : Meta GGA functionals, TD-DFT gradient, OOMP2, MP2 Hessian
   Martin Krupicka        : AUTO-CI
   Lucas Lang             : DCDCAS
   Dagmar Lenk            : GEPOL surface, SMD
   Dimitrios Liakos       : Extrapolation schemes; Compound Job, initial MDCI parallelization
   Dimitrios Manganas     : Further ROCIS development; embedding schemes
   Dimitrios Pantazis     : SARC Basis sets
   Taras Petrenko         : DFT Hessian,TD-DFT gradient, ASA, ECA, R-Raman, ABS, FL, XAS/XES, NRVS
   Peter Pinski           : DLPNO-MP2, DLPNO-MP2 Gradient
   Christoph Reimann      : Effective Core Potentials
   Marius Retegan         : Local ZFS, SOC
   Christoph Riplinger    : Optimizer, TS searches, QM/MM, DLPNO-CCSD(T), (RO)-DLPNO pert. Triples
   Tobias Risthaus        : Range-separated hybrids, TD-DFT gradient, RPA, STAB
   Michael Roemelt        : Original ROCIS implementation
   Masaaki Saitow         : Open-shell DLPNO-CCSD energy and density
   Barbara Sandhoefer     : DKH picture change effects
   Avijit Sen             : IP-ROCIS
   Kantharuban Sivalingam : CASSCF convergence, NEVPT2, FIC-MRCI
   Bernardo de Souza      : ESD, SOC TD-DFT
   Georgi Stoychev        : AutoAux, RI-MP2 NMR
   Willem Van den Heuvel  : Paramagnetic NMR
   Boris Wezisla          : Elementary symmetry handling
   Frank Wennmohs         : Technical directorship


 We gratefully acknowledge several colleagues who have allowed us to
 interface, adapt or use parts of their codes:
   Stefan Grimme, W. Hujo, H. Kruse,             : VdW corrections, initial TS optimization,
                  C. Bannwarth                     DFT functionals, gCP, sTDA/sTD-DF
   Ed Valeev, F. Pavosevic, A. Kumar             : LibInt (2-el integral package), F12 methods
   Garnet Chan, S. Sharma, J. Yang, R. Olivares  : DMRG
   Ulf Ekstrom                                   : XCFun DFT Library
   Mihaly Kallay                                 : mrcc  (arbitrary order and MRCC methods)
   Andreas Klamt, Michael Diedenhofen            : otool_cosmo (COSMO solvation model)
   Jiri Pittner, Ondrej Demel                    : Mk-CCSD
   Frank Weinhold                                : gennbo (NPA and NBO analysis)
   Christopher J. Cramer and Donald G. Truhlar   : smd solvation model
   Lars Goerigk                                  : TD-DFT with DH, B97 family of functionals
   V. Asgeirsson, H. Jonsson                     : NEB implementation
   FAccTs GmbH                                   : IRC, NEB, NEB-TS, Multilevel, MM, QM/MM, CI optimization
   S Lehtola, MJT Oliveira, MAL Marques          : LibXC Library


 Your calculation uses the libint2 library for the computation of 2-el integrals
 For citations please refer to: http://libint.valeyev.net

 Your ORCA version has been built with support for libXC version: 4.2.3
 For citations please refer to: https://tddft.org/programs/libxc/

 This ORCA versions uses:
   CBLAS   interface :  Fast vector & matrix operations
   LAPACKE interface :  Fast linear algebra routines
   SCALAPACK package :  Parallel linear algebra routines


----- Orbital basis set information -----
Your calculation utilizes the basis: ZORA-def2-SVP 
   Exponents from def2-SVP [F. Weigend and R. Ahlrichs, Phys. Chem. Chem. Phys. 7, 3297 (2005)],
   recontracted for ZORA by D. A. Pantazis.

================================================================================
                                        WARNINGS
                       Please study these warnings very carefully!
================================================================================


INFO   : the flag for use of LIBINT has been found!

================================================================================
                                       INPUT FILE
================================================================================
NAME = Kr_zora-def2-svp_2192.575824_.inp
|  1> ! LDA zora-def2-svp nori grid5 finalgrid6 verytightscf
|  2> %Pal NProcs 18 End
|  3> 
|  4> % REL
|  5>   Method ZORA
|  6>   ModelPot 1, 0, 0, 0
|  7>   velit 2192.575824
|  8> END
|  9> 
| 10> *xyz 34 1
| 11> Kr 0.0 0.0 0.0
| 12> **                         ****END OF INPUT****
================================================================================

                       ****************************
                       * Single Point Calculation *
                       ****************************

---------------------------------
CARTESIAN COORDINATES (ANGSTROEM)
---------------------------------
  Kr     0.000000    0.000000    0.000000

----------------------------
CARTESIAN COORDINATES (A.U.)
----------------------------
  NO LB      ZA    FRAG     MASS         X           Y           Z
   0 Kr   36.0000    0    83.800    0.000000    0.000000    0.000000

--------------------------------
INTERNAL COORDINATES (ANGSTROEM)
--------------------------------
 Kr     0   0   0     0.000000000000     0.00000000     0.00000000

---------------------------
INTERNAL COORDINATES (A.U.)
---------------------------
 Kr     0   0   0     0.000000000000     0.00000000     0.00000000

---------------------
BASIS SET INFORMATION
---------------------
There are 1 groups of distinct atoms

 Group   1 Type Kr  : 14s10p6d contracted to 9s6p3d pattern {611111111/511111/411}

Atom   0Kr   basis set group =>   1


           ************************************************************
           *        Program running with 18 parallel MPI-processes    *
           *              working on a common directory               *
           ************************************************************
------------------------------------------------------------------------------
                           ORCA GTO INTEGRAL CALCULATION
------------------------------------------------------------------------------

                         BASIS SET STATISTICS AND STARTUP INFO

 # of primitive gaussian shells          ...   30
 # of primitive gaussian functions       ...   74
 # of contracted shells                  ...   18
 # of contracted basis functions         ...   42
 Highest angular momentum                ...    2
 Maximum contraction depth               ...    6
 Integral package used                   ... LIBINT
 Integral threshhold            Thresh   ...  1.000e-12
 Primitive cut-off              TCut     ...  1.000e-14


------------------------------ INTEGRAL EVALUATION ----------------------------


 * One electron integrals 
 Pre-screening matrix                    ... done
 Shell pair data                         ... done (   0.000 sec)



           ************************************************************
           *        Program running with 18 parallel MPI-processes    *
           *              working on a common directory               *
           ************************************************************
------------------------------------------------------------------------------
                          ORCA RELATIVISTIC HAMILTONIAN
------------------------------------------------------------------------------

Relativistic Method            ... ZORA(MP)
Treatment of potential         ... Van Wuellen
Nucleus model                  ... Point Nucleus
Speed of light used            ... 2192.57582400000001


            *************************************************
            *         ZERO ORDER REGULAR APPROXIMATION      *
            *                     ZORA(MP)                  *
            *            Programmed by FN according to      *
            *                   C. van Wuellen              *
            *       J. Chem. Phys. (1998) vol 109, 392-399  *
            *************************************************

Terms included in model potential: +V(e,N)
Basis function cutoff value   ... 1.000000e-12
Loading the fitted atomic densities  (DKH4)  ... done
Calculating the cutoffs                      ... done
Number of fit functions                      ... 27
Setting up the integration grid ... done


           ************************************************************
           *        Program running with 18 parallel MPI-processes    *
           *              working on a common directory               *
           ************************************************************
-------------------------------------------------------------------------------
                                 ORCA SCF
-------------------------------------------------------------------------------

------------
SCF SETTINGS
------------
Hamiltonian:
 Density Functional     Method          .... DFT(GTOs)
 Exchange Functional    Exchange        .... Slater
   X-Alpha parameter    XAlpha          ....  0.666667
 Correlation Functional Correlation     .... VWN-5
 Gradients option       PostSCFGGA      .... off
   Density functional embedding theory  .... OFF

Relativistic Settings:
 Scalar relativistic method             .... ZORA
 Speed of light used       Velit        ....       2192.57582
Orbital energies will be scaled


General Settings:
 Integral files         IntName         .... Kr_zora-def2-svp_2192.575824_
 Hartree-Fock type      HFTyp           .... RHF
 Total Charge           Charge          ....   34
 Multiplicity           Mult            ....    1
 Number of Electrons    NEL             ....    2
 Basis Dimension        Dim             ....   42
 Nuclear Repulsion      ENuc            ....      0.0000000000 Eh

Convergence Acceleration:
 DIIS                   CNVDIIS         .... on
   Start iteration      DIISMaxIt       ....    12
   Startup error        DIISStart       ....  0.200000
   # of expansion vecs  DIISMaxEq       ....     5
   Bias factor          DIISBfac        ....   1.050
   Max. coefficient     DIISMaxC        ....  10.000
 Newton-Raphson         CNVNR           .... off
 SOSCF                  CNVSOSCF        .... on
   Start iteration      SOSCFMaxIt      ....   150
   Startup grad/error   SOSCFStart      ....  0.003300
 Level Shifting         CNVShift        .... on
   Level shift para.    LevelShift      ....    0.2500
   Turn off err/grad.   ShiftErr        ....    0.0010
 Zerner damping         CNVZerner       .... off
 Static damping         CNVDamp         .... on
   Fraction old density DampFac         ....    0.7000
   Max. Damping (<1)    DampMax         ....    0.9800
   Min. Damping (>=0)   DampMin         ....    0.0000
   Turn off err/grad.   DampErr         ....    0.1000
 Fernandez-Rico         CNVRico         .... off

SCF Procedure:
 Maximum # iterations   MaxIter         ....   125
 SCF integral mode      SCFMode         .... Direct
   Integral package                     .... LIBINT
 Reset frequency        DirectResetFreq ....    20
 Integral Threshold     Thresh          ....  1.000e-12 Eh
 Primitive CutOff       TCut            ....  1.000e-14 Eh

Convergence Tolerance:
 Convergence Check Mode ConvCheckMode   .... Total+1el-Energy
 Convergence forced     ConvForced      .... 0
 Energy Change          TolE            ....  1.000e-09 Eh
 1-El. energy change                    ....  1.000e-06 Eh
 Orbital Gradient       TolG            ....  2.000e-06
 Orbital Rotation angle TolX            ....  2.000e-06
 DIIS Error             TolErr          ....  1.000e-08


Diagonalization of the overlap matrix:
Smallest eigenvalue                        ... 5.579e-04
Time for diagonalization                   ...    0.001 sec
Threshold for overlap eigenvalues          ... 1.000e-08
Number of eigenvalues below threshold      ... 0
Time for construction of square roots      ...    0.001 sec
Total time needed                          ...    0.002 sec

-------------------
DFT GRID GENERATION
-------------------

General Integration Accuracy     IntAcc      ...  5.010
Radial Grid Type                 RadialGrid  ... Gauss-Chebyshev
Angular Grid (max. acc.)         AngularGrid ... Lebedev-434
Angular grid pruning method      GridPruning ... 3 (G Style)
Weight generation scheme         WeightScheme... Becke
Basis function cutoff            BFCut       ...    1.0000e-12
Integration weight cutoff        WCut        ...    1.0000e-14
Grids for H and He will be reduced by one unit

# of grid points (after initial pruning)     ...  16106 (   0.0 sec)
# of grid points (after weights+screening)   ...  16106 (   0.0 sec)
Grid point division into batches done        ...    0.2 sec
Reduced shell lists constructed in    0.2 sec

Total number of grid points                  ...    16106
Total number of batches                      ...      252
Average number of points per batch           ...       63
Average number of grid points per atom       ...    16106
Average number of shells per batch           ...     0.00 ( 0.00%)
Average number of basis functions per batch  ...     0.00 ( 0.00%)
Average number of large shells per batch     ...     0.00 ( -nan%)
Average number of large basis fcns per batch ...     0.00 ( -nan%)
Maximum spatial batch extension              ...  17.34, 17.34, 17.34 au
Average spatial batch extension              ...   0.86,  0.87,  0.87 au

Time for grid setup =    0.250 sec

------------------------------
INITIAL GUESS: MODEL POTENTIAL
------------------------------
Loading ZORA relativistic densities                ... done
Calculating cut-offs                               ... done
Setting up the integral package                    ... done
Initializing the effective Hamiltonian             ... done
Starting the Coulomb interaction                   ... done (   0.0 sec)
Reading the grid                                   ... done
Mapping shells                                     ... done
Starting the XC term evaluation                    ... done (   0.0 sec)
  promolecular density results
     # of electrons  =     36.000000565
     EX              =    -91.042004939
     EC              =     -3.295965580
     EX+EC           =    -94.337970520
Transforming the Hamiltonian                       ... done (   0.0 sec)
Diagonalizing the Hamiltonian                      ... done (   0.0 sec)
Back transforming the eigenvectors                 ... done (   0.0 sec)
Now organizing SCF variables                       ... done
                      ------------------
                      INITIAL GUESS DONE (   0.3 sec)
                      ------------------
--------------
SCF ITERATIONS
--------------
ITER       Energy         Delta-E        Max-DP      RMS-DP      [F,P]     Damp
               ***  Starting incremental Fock matrix formation  ***
  0  -1269.5192973352   0.000000000000 0.03680535  0.00132964  6.6641016 0.7000
  1  -1269.5437328501  -0.024435514871 0.02566293  0.00092720  4.6468281 0.7000
  2  -1269.5607410767  -0.017008226609 0.01788328  0.00064620  3.2395735 0.7000
  3  -1269.5726000654  -0.011858988759 0.01246212  0.00045037  2.2585469 0.7000
  4  -1269.5808787175  -0.008278652037 0.00868440  0.00031388  1.5746296 0.7000
  5  -1269.5866628124  -0.005784094963 0.00605189  0.00021876  1.0978279 0.7000
  6  -1269.5907063711  -0.004043558639 0.00421740  0.00015247  0.7654127 0.7000
                      *** Initiating the SOSCF procedure ***
                      *** Re-Reading the Fockian *** 
                      *** Removing any level shift *** 
ITER      Energy       Delta-E        Grad      Rot      Max-DP    RMS-DP
  7  -1269.59353429  -0.0028279206  0.002342  0.002342  0.009797  0.000354
               *** Restarting incremental Fock matrix formation ***
  8  -1269.60012465  -0.0065903590  0.005435  0.000005  0.000102  0.000004
  9  -1269.60012473  -0.0000000749  0.000071  0.000000  0.000001  0.000000
                 **** Energy Check signals convergence ****
              ***Rediagonalizing the Fockian in SOSCF/NRSCF***

               *****************************************************
               *                     SUCCESS                       *
               *           SCF CONVERGED AFTER  10 CYCLES          *
               *****************************************************

Setting up the final grid:

General Integration Accuracy     IntAcc      ...  5.340
Radial Grid Type                 RadialGrid  ... Gauss-Chebyshev
Angular Grid (max. acc.)         AngularGrid ... Lebedev-590
Angular grid pruning method      GridPruning ... 3 (G Style)
Weight generation scheme         WeightScheme... Becke
Basis function cutoff            BFCut       ...    1.0000e-12
Integration weight cutoff        WCut        ...    1.0000e-14
Grids for H and He will be reduced by one unit

# of grid points (after initial pruning)     ...  24180 (   0.0 sec)
# of grid points (after weights+screening)   ...  24180 (   0.0 sec)
Grid point division into batches done        ...    0.4 sec
Reduced shell lists constructed in    0.4 sec

Total number of grid points                  ...    24180
Total number of batches                      ...      378
Average number of points per batch           ...       63
Average number of grid points per atom       ...    24180
Average number of shells per batch           ...     0.00 ( 0.00%)
Average number of basis functions per batch  ...     0.00 ( 0.00%)
Average number of large shells per batch     ...     0.00 ( -nan%)
Average number of large basis fcns per batch ...     0.00 ( -nan%)
Maximum spatial batch extension              ...  17.58, 17.58, 17.58 au
Average spatial batch extension              ...   0.77,  0.77,  0.77 au

Final grid set up in    0.4 sec
Final integration                            ... done (   0.0 sec)
Change in XC energy                          ...     0.000003941
Integrated number of electrons               ...     1.999999743
Previous integrated no of electrons          ...     1.999999530

----------------
TOTAL SCF ENERGY
----------------

Total Energy       :        -1269.60012079 Eh          -34547.57565 eV

Components:
Nuclear Repulsion  :            0.00000000 Eh               0.00000 eV
Electronic Energy  :        -1269.60012079 Eh          -34547.57565 eV
One Electron Energy:        -1294.60450876 Eh          -35227.97964 eV
Two Electron Energy:           25.00438798 Eh             680.40399 eV

Virial components:
Potential Energy   :        -2542.17499746 Eh          -69176.09853 eV
Kinetic Energy     :         1272.57487668 Eh           34628.52287 eV
Virial Ratio       :            1.99766241


DFT components:
N(Alpha)           :        0.999999871300 electrons
N(Beta)            :        0.999999871300 electrons
N(Total)           :        1.999999742599 electrons
E(X)               :      -19.002643097536 Eh       
E(C)               :       -0.277760965018 Eh       
E(XC)              :      -19.280404062554 Eh       
DFET-embed. en.    :        0.000000000000 Eh       

---------------
SCF CONVERGENCE
---------------

  Last Energy change         ...   -1.1369e-11  Tolerance :   1.0000e-09
  Last MAX-Density change    ...    0.0000e+00  Tolerance :   1.0000e-08
  Last RMS-Density change    ...    0.0000e+00  Tolerance :   1.0000e-09
  Last Orbital Gradient      ...    2.5644e-10  Tolerance :   2.0000e-06
  Last Orbital Rotation      ...    0.0000e+00  Tolerance :   2.0000e-06

================================================================================
                                        WARNING
Number of found core electrons (2) does not match given number of chemical core electrons (18)
================================================================================
             **** THE GBW FILE WAS UPDATED (Kr_zora-def2-svp_2192.575824_.gbw) ****
             **** DENSITY FILE WAS UPDATED (Kr_zora-def2-svp_2192.575824_.scfp) ****
             **** ENERGY FILE WAS UPDATED (Kr_zora-def2-svp_2192.575824_.en.tmp) ****
             **** THE GBW FILE WAS UPDATED (Kr_zora-def2-svp_2192.575824_.gbw) ****
             **** DENSITY FILE WAS UPDATED (Kr_zora-def2-svp_2192.575824_.scfp) ****
----------------
ORBITAL ENERGIES
----------------

  NO   OCC          E(Eh)            E(eV) 
   0   2.0000    -615.834610    -16757.7117 
   1   0.0000    -148.782473     -4048.5769 
   2   0.0000    -147.030859     -4000.9131 
   3   0.0000    -147.030859     -4000.9131 
   4   0.0000    -147.030859     -4000.9131 
   5   0.0000     -65.306648     -1777.0842 
   6   0.0000     -64.381309     -1751.9045 
   7   0.0000     -64.381309     -1751.9045 
   8   0.0000     -64.381309     -1751.9045 
   9   0.0000     -58.853445     -1601.4836 
  10   0.0000     -58.853445     -1601.4836 
  11   0.0000     -58.853445     -1601.4836 
  12   0.0000     -58.853445     -1601.4836 
  13   0.0000     -58.853445     -1601.4836 
  14   0.0000     -36.340291      -988.8696 
  15   0.0000     -35.993504      -979.4330 
  16   0.0000     -35.993504      -979.4330 
  17   0.0000     -35.993504      -979.4330 
  18   0.0000     -27.847365      -757.7653 
  19   0.0000     -27.847365      -757.7653 
  20   0.0000     -27.847365      -757.7653 
  21   0.0000     -27.847365      -757.7653 
  22   0.0000     -27.847365      -757.7653 
  23   0.0000     -22.966167      -624.9412 
  24   0.0000     -22.966167      -624.9412 
  25   0.0000     -22.966167      -624.9412 
  26   0.0000     -22.165356      -603.1500 
  27   0.0000     -15.901031      -432.6890 
  28   0.0000     -15.901031      -432.6890 
  29   0.0000     -15.901031      -432.6890 
  30   0.0000     -15.189607      -413.3302 
  31   0.0000     -15.121668      -411.4815 
  32   0.0000     -15.121668      -411.4815 
  33   0.0000     -15.121668      -411.4815 
  34   0.0000     -15.121668      -411.4815 
  35   0.0000     -15.121668      -411.4815 
  36   0.0000     -10.560798      -287.3739 
  37   0.0000     -10.518284      -286.2171 
  38   0.0000     -10.518284      -286.2171 
  39   0.0000     -10.518284      -286.2171 
  40   0.0000      44.853532      1220.5267 
  41   0.0000    1199.056660     32627.9905 

                    ********************************
                    * MULLIKEN POPULATION ANALYSIS *
                    ********************************

-----------------------
MULLIKEN ATOMIC CHARGES
-----------------------
   0 Kr:   34.000000
Sum of atomic charges:   34.0000000

--------------------------------
MULLIKEN REDUCED ORBITAL CHARGES
--------------------------------
  0 Krs       :     2.000000  s :     2.000000
      pz      :     0.000000  p :     0.000000
      px      :     0.000000
      py      :     0.000000
      dz2     :     0.000000  d :     0.000000
      dxz     :     0.000000
      dyz     :     0.000000
      dx2y2   :     0.000000
      dxy     :     0.000000


                     *******************************
                     * LOEWDIN POPULATION ANALYSIS *
                     *******************************

----------------------
LOEWDIN ATOMIC CHARGES
----------------------
   0 Kr:   34.000000

-------------------------------
LOEWDIN REDUCED ORBITAL CHARGES
-------------------------------
  0 Krs       :     2.000000  s :     2.000000
      pz      :     0.000000  p :     0.000000
      px      :     0.000000
      py      :     0.000000
      dz2     :     0.000000  d :     0.000000
      dxz     :     0.000000
      dyz     :     0.000000
      dx2y2   :     0.000000
      dxy     :     0.000000


                      *****************************
                      * MAYER POPULATION ANALYSIS *
                      *****************************

  NA   - Mulliken gross atomic population
  ZA   - Total nuclear charge
  QA   - Mulliken gross atomic charge
  VA   - Mayer's total valence
  BVA  - Mayer's bonded valence
  FA   - Mayer's free valence

  ATOM       NA         ZA         QA         VA         BVA        FA
  0 Kr     2.0000    36.0000    34.0000    -0.0000     0.0000    -0.0000

  Mayer bond orders larger than 0.100000


--------------------------
ATOM BASIS FOR ELEMENT Kr
--------------------------
 NewGTO Kr
 S 14
    1     120165.648799999995         0.002782278274
    2      18042.500169999999         0.015718101938
    3       4105.180039000000         0.068046052866
    4       1159.444725000000         0.218149116995
    5        378.138103500000         0.404279489285
    6        130.676100500000         0.283602448822
    7        250.963733500000         0.124340252919
    8         30.265930380000         0.126303155935
    9         12.668110760000         0.031472736074
   10         22.697940100000        -0.122203557124
   11          3.867301740000        -0.006454376587
   12          1.801370667000         0.002940871425
   13          0.403086391400        -0.000730821524
   14          0.151705277500         0.000285367955
 S 14
    1     120165.648799999995         0.001068042499
    2      18042.500169999999         0.006033760543
    3       4105.180039000000         0.026121066684
    4       1159.444725000000         0.083741633675
    5        378.138103500000         0.155192124361
    6        130.676100500000         0.108867423832
    7        250.963733500000         0.181803797556
    8         30.265930380000        -1.042548321647
    9         12.668110760000        -0.367591967584
   10         22.697940100000         0.245994547257
   11          3.867301740000         0.036014951666
   12          1.801370667000        -0.017382821838
   13          0.403086391400         0.004384404249
   14          0.151705277500        -0.001704867670
 S 14
    1     120165.648799999995         0.000581991646
    2      18042.500169999999         0.003287882489
    3       4105.180039000000         0.014233743144
    4       1159.444725000000         0.045632014901
    5        378.138103500000         0.084566410048
    6        130.676100500000         0.059323417619
    7        250.963733500000         0.114303633513
    8         30.265930380000        -0.691689013939
    9         12.668110760000         0.959557855601
   10         22.697940100000        -0.839991130479
   11          3.867301740000         1.030074267144
   12          1.801370667000        -0.238934535773
   13          0.403086391400         0.050301743085
   14          0.151705277500        -0.018825498577
 S 14
    1     120165.648799999995        -0.000378199870
    2      18042.500169999999        -0.002136588627
    3       4105.180039000000        -0.009249616985
    4       1159.444725000000        -0.029653384625
    5        378.138103500000        -0.054954406220
    6        130.676100500000        -0.038550568581
    7        250.963733500000        -0.074701592049
    8         30.265930380000         0.069877230236
    9         12.668110760000        -2.366541101104
   10         22.697940100000         1.903854427046
   11          3.867301740000        -0.543192773750
   12          1.801370667000         1.691301972857
   13          0.403086391400        -0.158221123692
   14          0.151705277500         0.056455998449
 S 14
    1     120165.648799999995        -0.000309311492
    2      18042.500169999999        -0.001747413119
    3       4105.180039000000        -0.007564817045
    4       1159.444725000000        -0.024252077660
    5        378.138103500000        -0.044944566843
    6        130.676100500000        -0.031528656673
    7        250.963733500000        -0.057644715854
    8         30.265930380000        -0.604023737173
    9         12.668110760000        -4.070889322520
   10         22.697940100000         3.287785501574
   11          3.867301740000         2.533558520188
   12          1.801370667000        -0.489716670803
   13          0.403086391400        -1.282866176566
   14          0.151705277500         0.350625772677
 S 14
    1     120165.648799999995        -0.000322474330
    2      18042.500169999999        -0.001821774779
    3       4105.180039000000        -0.007886739979
    4       1159.444725000000        -0.025284131702
    5        378.138103500000        -0.046857195629
    6        130.676100500000        -0.032870367599
    7        250.963733500000        -0.059715557483
    8         30.265930380000        -0.846067155493
    9         12.668110760000        -5.373335024896
   10         22.697940100000         4.126284307993
   11          3.867301740000         5.430675002881
   12          1.801370667000        -4.292666785950
   13          0.403086391400         1.425630482288
   14          0.151705277500         0.036733218689
 S 14
    1     120165.648799999995        -0.000127894756
    2      18042.500169999999        -0.000722523996
    3       4105.180039000000        -0.003127916221
    4       1159.444725000000        -0.010027799305
    5        378.138103500000        -0.018583772593
    6        130.676100500000        -0.013036534268
    7        250.963733500000        -0.024624306944
    8         30.265930380000        -0.263114582813
    9         12.668110760000        -2.208851930618
   10         22.697940100000         1.556791859722
   11          3.867301740000         2.692475883311
   12          1.801370667000        -2.696858736726
   13          0.403086391400         2.688626789037
   14          0.151705277500        -2.225926908899
 S 14
    1     120165.648799999995         0.001045059523
    2      18042.500169999999         0.005903921353
    3       4105.180039000000         0.025558973092
    4       1159.444725000000         0.081939615547
    5        378.138103500000         0.151852578557
    6        130.676100500000         0.106524729253
    7        250.963733500000         0.355803858722
    8         30.265930380000       -20.503043196304
    9         12.668110760000       -14.030693204687
   10         22.697940100000        31.265962896076
   11          3.867301740000         4.470202499657
   12          1.801370667000        -2.235508628452
   13          0.403086391400         0.607629871723
   14          0.151705277500        -0.246219986835
 S 14
    1     120165.648799999995        -0.010651376643
    2      18042.500169999999        -0.060173500775
    3       4105.180039000000        -0.260500232856
    4       1159.444725000000        -0.835138753550
    5        378.138103500000        -1.547700368529
    6        130.676100500000        -1.085713290410
    7        250.963733500000         3.720302989720
    8         30.265930380000        -5.485258727095
    9         12.668110760000        -2.834942847835
   10         22.697940100000         7.509515174618
   11          3.867301740000         0.770241144006
   12          1.801370667000        -0.372103901434
   13          0.403086391400         0.096377008668
   14          0.151705277500        -0.037998628077
 P 10
    1       1668.573662000000         0.010935414111
    2        394.138628000000         0.072978490950
    3        125.466448500000         0.276360947581
    4         45.704992730000         0.544662471555
    5         17.270133230000         0.369416795480
    6          9.269948777000        -0.188616534466
    7          3.836461772000         0.113251651213
    8          1.646716331000        -0.058755695958
    9          0.614796864900         0.021336124946
   10          0.183194674100        -0.005376427771
 P 10
    1       1668.573662000000         0.006548956103
    2        394.138628000000         0.043705060352
    3        125.466448500000         0.165505914629
    4         45.704992730000         0.326185234592
    5         17.270133230000         0.221234820442
    6          9.269948777000        -1.225952404362
    7          3.836461772000         0.031995142578
    8          1.646716331000        -0.096169367393
    9          0.614796864900         0.037163654295
   10          0.183194674100        -0.009364386439
 P 10
    1       1668.573662000000         0.004181950978
    2        394.138628000000         0.027908634142
    3        125.466448500000         0.105686709560
    4         45.704992730000         0.208291312298
    5         17.270133230000         0.141273381468
    6          9.269948777000        -1.487859675383
    7          3.836461772000         1.349210669323
    8          1.646716331000         0.293034925827
    9          0.614796864900        -0.009970273775
   10          0.183194674100         0.000419015856
 P 10
    1       1668.573662000000         0.002979644682
    2        394.138628000000         0.019884932592
    3        125.466448500000         0.075301897070
    4         45.704992730000         0.148407789632
    5         17.270133230000         0.100657440035
    6          9.269948777000        -1.442479782221
    7          3.836461772000         2.566712886669
    8          1.646716331000        -1.641997777513
    9          0.614796864900        -0.287804319438
   10          0.183194674100         0.034785918130
 P 10
    1       1668.573662000000         0.001947798813
    2        394.138628000000         0.012998814370
    3        125.466448500000         0.049224978619
    4         45.704992730000         0.097014425344
    5         17.270133230000         0.065799940326
    6          9.269948777000        -1.085789020205
    7          3.836461772000         2.518589572876
    8          1.646716331000        -3.053492731864
    9          0.614796864900         1.944147159741
   10          0.183194674100        -0.066189051405
 P 10
    1       1668.573662000000         0.000696027784
    2        394.138628000000         0.004645005374
    3        125.466448500000         0.017590088121
    4         45.704992730000         0.034667202276
    5         17.270133230000         0.023512996474
    6          9.269948777000        -0.410399448835
    7          3.836461772000         1.057323092403
    8          1.646716331000        -1.595618744962
    9          0.614796864900         1.782690053923
   10          0.183194674100        -1.510328069866
 D 6
    1        115.558686000000         0.028730100812
    2         33.477985860000         0.169416215565
    3         11.834450210000         0.464393543035
    4          4.340825489000         0.631109291307
    5          1.507927316000        -0.246300728939
    6          0.443000000000         0.071743367795
 D 6
    1        115.558686000000         0.009092247296
    2         33.477985860000         0.053615340161
    3         11.834450210000         0.146967146535
    4          4.340825489000         0.199727866777
    5          1.507927316000        -1.198084086089
    6          0.443000000000         0.168439633250
 D 6
    1        115.558686000000         0.002933424777
    2         33.477985860000         0.017297876107
    3         11.834450210000         0.047415897854
    4          4.340825489000         0.064438048591
    5          1.507927316000        -0.577981699990
    6          0.443000000000         1.195722807246
 end
  // -----------------------------------------------
  // The basis set
  // -----------------------------------------------
  BAS[ATNO] = new BFNGauss[NSH];
  // Basis function   1 L = s
  InitBFNGauss(BAS[ATNO][  0]);
  BAS[ATNO][  0].l  = 0;
  BAS[ATNO][  0].ng = 14;
  BAS[ATNO][  0].a[  0] =    120165.648799999995;     BAS[ATNO][  0].d[  0] =         0.002782278274;
  BAS[ATNO][  0].a[  1] =     18042.500169999999;     BAS[ATNO][  0].d[  1] =         0.015718101938;
  BAS[ATNO][  0].a[  2] =      4105.180039000000;     BAS[ATNO][  0].d[  2] =         0.068046052866;
  BAS[ATNO][  0].a[  3] =      1159.444725000000;     BAS[ATNO][  0].d[  3] =         0.218149116995;
  BAS[ATNO][  0].a[  4] =       378.138103500000;     BAS[ATNO][  0].d[  4] =         0.404279489285;
  BAS[ATNO][  0].a[  5] =       130.676100500000;     BAS[ATNO][  0].d[  5] =         0.283602448822;
  BAS[ATNO][  0].a[  6] =       250.963733500000;     BAS[ATNO][  0].d[  6] =         0.124340252919;
  BAS[ATNO][  0].a[  7] =        30.265930380000;     BAS[ATNO][  0].d[  7] =         0.126303155935;
  BAS[ATNO][  0].a[  8] =        12.668110760000;     BAS[ATNO][  0].d[  8] =         0.031472736074;
  BAS[ATNO][  0].a[  9] =        22.697940100000;     BAS[ATNO][  0].d[  9] =        -0.122203557124;
  BAS[ATNO][  0].a[ 10] =         3.867301740000;     BAS[ATNO][  0].d[ 10] =        -0.006454376587;
  BAS[ATNO][  0].a[ 11] =         1.801370667000;     BAS[ATNO][  0].d[ 11] =         0.002940871425;
  BAS[ATNO][  0].a[ 12] =         0.403086391400;     BAS[ATNO][  0].d[ 12] =        -0.000730821524;
  BAS[ATNO][  0].a[ 13] =         0.151705277500;     BAS[ATNO][  0].d[ 13] =         0.000285367955;

  // Basis function   2 L = s
  InitBFNGauss(BAS[ATNO][  1]);
  BAS[ATNO][  1].l  = 0;
  BAS[ATNO][  1].ng = 14;
  BAS[ATNO][  1].a[  0] =    120165.648799999995;     BAS[ATNO][  1].d[  0] =        -0.001068042499;
  BAS[ATNO][  1].a[  1] =     18042.500169999999;     BAS[ATNO][  1].d[  1] =        -0.006033760543;
  BAS[ATNO][  1].a[  2] =      4105.180039000000;     BAS[ATNO][  1].d[  2] =        -0.026121066684;
  BAS[ATNO][  1].a[  3] =      1159.444725000000;     BAS[ATNO][  1].d[  3] =        -0.083741633675;
  BAS[ATNO][  1].a[  4] =       378.138103500000;     BAS[ATNO][  1].d[  4] =        -0.155192124361;
  BAS[ATNO][  1].a[  5] =       130.676100500000;     BAS[ATNO][  1].d[  5] =        -0.108867423832;
  BAS[ATNO][  1].a[  6] =       250.963733500000;     BAS[ATNO][  1].d[  6] =        -0.181803797556;
  BAS[ATNO][  1].a[  7] =        30.265930380000;     BAS[ATNO][  1].d[  7] =         1.042548321647;
  BAS[ATNO][  1].a[  8] =        12.668110760000;     BAS[ATNO][  1].d[  8] =         0.367591967584;
  BAS[ATNO][  1].a[  9] =        22.697940100000;     BAS[ATNO][  1].d[  9] =        -0.245994547257;
  BAS[ATNO][  1].a[ 10] =         3.867301740000;     BAS[ATNO][  1].d[ 10] =        -0.036014951666;
  BAS[ATNO][  1].a[ 11] =         1.801370667000;     BAS[ATNO][  1].d[ 11] =         0.017382821838;
  BAS[ATNO][  1].a[ 12] =         0.403086391400;     BAS[ATNO][  1].d[ 12] =        -0.004384404249;
  BAS[ATNO][  1].a[ 13] =         0.151705277500;     BAS[ATNO][  1].d[ 13] =         0.001704867670;

  // Basis function   3 L = s
  InitBFNGauss(BAS[ATNO][  2]);
  BAS[ATNO][  2].l  = 0;
  BAS[ATNO][  2].ng = 14;
  BAS[ATNO][  2].a[  0] =    120165.648799999995;     BAS[ATNO][  2].d[  0] =         0.000581991646;
  BAS[ATNO][  2].a[  1] =     18042.500169999999;     BAS[ATNO][  2].d[  1] =         0.003287882489;
  BAS[ATNO][  2].a[  2] =      4105.180039000000;     BAS[ATNO][  2].d[  2] =         0.014233743144;
  BAS[ATNO][  2].a[  3] =      1159.444725000000;     BAS[ATNO][  2].d[  3] =         0.045632014901;
  BAS[ATNO][  2].a[  4] =       378.138103500000;     BAS[ATNO][  2].d[  4] =         0.084566410048;
  BAS[ATNO][  2].a[  5] =       130.676100500000;     BAS[ATNO][  2].d[  5] =         0.059323417619;
  BAS[ATNO][  2].a[  6] =       250.963733500000;     BAS[ATNO][  2].d[  6] =         0.114303633513;
  BAS[ATNO][  2].a[  7] =        30.265930380000;     BAS[ATNO][  2].d[  7] =        -0.691689013939;
  BAS[ATNO][  2].a[  8] =        12.668110760000;     BAS[ATNO][  2].d[  8] =         0.959557855601;
  BAS[ATNO][  2].a[  9] =        22.697940100000;     BAS[ATNO][  2].d[  9] =        -0.839991130479;
  BAS[ATNO][  2].a[ 10] =         3.867301740000;     BAS[ATNO][  2].d[ 10] =         1.030074267144;
  BAS[ATNO][  2].a[ 11] =         1.801370667000;     BAS[ATNO][  2].d[ 11] =        -0.238934535773;
  BAS[ATNO][  2].a[ 12] =         0.403086391400;     BAS[ATNO][  2].d[ 12] =         0.050301743085;
  BAS[ATNO][  2].a[ 13] =         0.151705277500;     BAS[ATNO][  2].d[ 13] =        -0.018825498577;

  // Basis function   4 L = s
  InitBFNGauss(BAS[ATNO][  3]);
  BAS[ATNO][  3].l  = 0;
  BAS[ATNO][  3].ng = 14;
  BAS[ATNO][  3].a[  0] =    120165.648799999995;     BAS[ATNO][  3].d[  0] =         0.000378199870;
  BAS[ATNO][  3].a[  1] =     18042.500169999999;     BAS[ATNO][  3].d[  1] =         0.002136588627;
  BAS[ATNO][  3].a[  2] =      4105.180039000000;     BAS[ATNO][  3].d[  2] =         0.009249616985;
  BAS[ATNO][  3].a[  3] =      1159.444725000000;     BAS[ATNO][  3].d[  3] =         0.029653384625;
  BAS[ATNO][  3].a[  4] =       378.138103500000;     BAS[ATNO][  3].d[  4] =         0.054954406220;
  BAS[ATNO][  3].a[  5] =       130.676100500000;     BAS[ATNO][  3].d[  5] =         0.038550568581;
  BAS[ATNO][  3].a[  6] =       250.963733500000;     BAS[ATNO][  3].d[  6] =         0.074701592049;
  BAS[ATNO][  3].a[  7] =        30.265930380000;     BAS[ATNO][  3].d[  7] =        -0.069877230236;
  BAS[ATNO][  3].a[  8] =        12.668110760000;     BAS[ATNO][  3].d[  8] =         2.366541101104;
  BAS[ATNO][  3].a[  9] =        22.697940100000;     BAS[ATNO][  3].d[  9] =        -1.903854427046;
  BAS[ATNO][  3].a[ 10] =         3.867301740000;     BAS[ATNO][  3].d[ 10] =         0.543192773750;
  BAS[ATNO][  3].a[ 11] =         1.801370667000;     BAS[ATNO][  3].d[ 11] =        -1.691301972857;
  BAS[ATNO][  3].a[ 12] =         0.403086391400;     BAS[ATNO][  3].d[ 12] =         0.158221123692;
  BAS[ATNO][  3].a[ 13] =         0.151705277500;     BAS[ATNO][  3].d[ 13] =        -0.056455998449;

  // Basis function   5 L = s
  InitBFNGauss(BAS[ATNO][  4]);
  BAS[ATNO][  4].l  = 0;
  BAS[ATNO][  4].ng = 14;
  BAS[ATNO][  4].a[  0] =    120165.648799999995;     BAS[ATNO][  4].d[  0] =         0.000309311492;
  BAS[ATNO][  4].a[  1] =     18042.500169999999;     BAS[ATNO][  4].d[  1] =         0.001747413119;
  BAS[ATNO][  4].a[  2] =      4105.180039000000;     BAS[ATNO][  4].d[  2] =         0.007564817045;
  BAS[ATNO][  4].a[  3] =      1159.444725000000;     BAS[ATNO][  4].d[  3] =         0.024252077660;
  BAS[ATNO][  4].a[  4] =       378.138103500000;     BAS[ATNO][  4].d[  4] =         0.044944566843;
  BAS[ATNO][  4].a[  5] =       130.676100500000;     BAS[ATNO][  4].d[  5] =         0.031528656673;
  BAS[ATNO][  4].a[  6] =       250.963733500000;     BAS[ATNO][  4].d[  6] =         0.057644715854;
  BAS[ATNO][  4].a[  7] =        30.265930380000;     BAS[ATNO][  4].d[  7] =         0.604023737173;
  BAS[ATNO][  4].a[  8] =        12.668110760000;     BAS[ATNO][  4].d[  8] =         4.070889322520;
  BAS[ATNO][  4].a[  9] =        22.697940100000;     BAS[ATNO][  4].d[  9] =        -3.287785501574;
  BAS[ATNO][  4].a[ 10] =         3.867301740000;     BAS[ATNO][  4].d[ 10] =        -2.533558520188;
  BAS[ATNO][  4].a[ 11] =         1.801370667000;     BAS[ATNO][  4].d[ 11] =         0.489716670803;
  BAS[ATNO][  4].a[ 12] =         0.403086391400;     BAS[ATNO][  4].d[ 12] =         1.282866176566;
  BAS[ATNO][  4].a[ 13] =         0.151705277500;     BAS[ATNO][  4].d[ 13] =        -0.350625772677;

  // Basis function   6 L = s
  InitBFNGauss(BAS[ATNO][  5]);
  BAS[ATNO][  5].l  = 0;
  BAS[ATNO][  5].ng = 14;
  BAS[ATNO][  5].a[  0] =    120165.648799999995;     BAS[ATNO][  5].d[  0] =        -0.000322474330;
  BAS[ATNO][  5].a[  1] =     18042.500169999999;     BAS[ATNO][  5].d[  1] =        -0.001821774779;
  BAS[ATNO][  5].a[  2] =      4105.180039000000;     BAS[ATNO][  5].d[  2] =        -0.007886739979;
  BAS[ATNO][  5].a[  3] =      1159.444725000000;     BAS[ATNO][  5].d[  3] =        -0.025284131702;
  BAS[ATNO][  5].a[  4] =       378.138103500000;     BAS[ATNO][  5].d[  4] =        -0.046857195629;
  BAS[ATNO][  5].a[  5] =       130.676100500000;     BAS[ATNO][  5].d[  5] =        -0.032870367599;
  BAS[ATNO][  5].a[  6] =       250.963733500000;     BAS[ATNO][  5].d[  6] =        -0.059715557483;
  BAS[ATNO][  5].a[  7] =        30.265930380000;     BAS[ATNO][  5].d[  7] =        -0.846067155493;
  BAS[ATNO][  5].a[  8] =        12.668110760000;     BAS[ATNO][  5].d[  8] =        -5.373335024896;
  BAS[ATNO][  5].a[  9] =        22.697940100000;     BAS[ATNO][  5].d[  9] =         4.126284307993;
  BAS[ATNO][  5].a[ 10] =         3.867301740000;     BAS[ATNO][  5].d[ 10] =         5.430675002881;
  BAS[ATNO][  5].a[ 11] =         1.801370667000;     BAS[ATNO][  5].d[ 11] =        -4.292666785950;
  BAS[ATNO][  5].a[ 12] =         0.403086391400;     BAS[ATNO][  5].d[ 12] =         1.425630482288;
  BAS[ATNO][  5].a[ 13] =         0.151705277500;     BAS[ATNO][  5].d[ 13] =         0.036733218689;

  // Basis function   7 L = s
  InitBFNGauss(BAS[ATNO][  6]);
  BAS[ATNO][  6].l  = 0;
  BAS[ATNO][  6].ng = 14;
  BAS[ATNO][  6].a[  0] =    120165.648799999995;     BAS[ATNO][  6].d[  0] =         0.000127894756;
  BAS[ATNO][  6].a[  1] =     18042.500169999999;     BAS[ATNO][  6].d[  1] =         0.000722523996;
  BAS[ATNO][  6].a[  2] =      4105.180039000000;     BAS[ATNO][  6].d[  2] =         0.003127916221;
  BAS[ATNO][  6].a[  3] =      1159.444725000000;     BAS[ATNO][  6].d[  3] =         0.010027799305;
  BAS[ATNO][  6].a[  4] =       378.138103500000;     BAS[ATNO][  6].d[  4] =         0.018583772593;
  BAS[ATNO][  6].a[  5] =       130.676100500000;     BAS[ATNO][  6].d[  5] =         0.013036534268;
  BAS[ATNO][  6].a[  6] =       250.963733500000;     BAS[ATNO][  6].d[  6] =         0.024624306944;
  BAS[ATNO][  6].a[  7] =        30.265930380000;     BAS[ATNO][  6].d[  7] =         0.263114582813;
  BAS[ATNO][  6].a[  8] =        12.668110760000;     BAS[ATNO][  6].d[  8] =         2.208851930618;
  BAS[ATNO][  6].a[  9] =        22.697940100000;     BAS[ATNO][  6].d[  9] =        -1.556791859722;
  BAS[ATNO][  6].a[ 10] =         3.867301740000;     BAS[ATNO][  6].d[ 10] =        -2.692475883311;
  BAS[ATNO][  6].a[ 11] =         1.801370667000;     BAS[ATNO][  6].d[ 11] =         2.696858736726;
  BAS[ATNO][  6].a[ 12] =         0.403086391400;     BAS[ATNO][  6].d[ 12] =        -2.688626789037;
  BAS[ATNO][  6].a[ 13] =         0.151705277500;     BAS[ATNO][  6].d[ 13] =         2.225926908899;

  // Basis function   8 L = s
  InitBFNGauss(BAS[ATNO][  7]);
  BAS[ATNO][  7].l  = 0;
  BAS[ATNO][  7].ng = 14;
  BAS[ATNO][  7].a[  0] =    120165.648799999995;     BAS[ATNO][  7].d[  0] =         0.001045059523;
  BAS[ATNO][  7].a[  1] =     18042.500169999999;     BAS[ATNO][  7].d[  1] =         0.005903921353;
  BAS[ATNO][  7].a[  2] =      4105.180039000000;     BAS[ATNO][  7].d[  2] =         0.025558973092;
  BAS[ATNO][  7].a[  3] =      1159.444725000000;     BAS[ATNO][  7].d[  3] =         0.081939615547;
  BAS[ATNO][  7].a[  4] =       378.138103500000;     BAS[ATNO][  7].d[  4] =         0.151852578557;
  BAS[ATNO][  7].a[  5] =       130.676100500000;     BAS[ATNO][  7].d[  5] =         0.106524729253;
  BAS[ATNO][  7].a[  6] =       250.963733500000;     BAS[ATNO][  7].d[  6] =         0.355803858722;
  BAS[ATNO][  7].a[  7] =        30.265930380000;     BAS[ATNO][  7].d[  7] =       -20.503043196304;
  BAS[ATNO][  7].a[  8] =        12.668110760000;     BAS[ATNO][  7].d[  8] =       -14.030693204687;
  BAS[ATNO][  7].a[  9] =        22.697940100000;     BAS[ATNO][  7].d[  9] =        31.265962896076;
  BAS[ATNO][  7].a[ 10] =         3.867301740000;     BAS[ATNO][  7].d[ 10] =         4.470202499657;
  BAS[ATNO][  7].a[ 11] =         1.801370667000;     BAS[ATNO][  7].d[ 11] =        -2.235508628452;
  BAS[ATNO][  7].a[ 12] =         0.403086391400;     BAS[ATNO][  7].d[ 12] =         0.607629871723;
  BAS[ATNO][  7].a[ 13] =         0.151705277500;     BAS[ATNO][  7].d[ 13] =        -0.246219986835;

  // Basis function   9 L = s
  InitBFNGauss(BAS[ATNO][  8]);
  BAS[ATNO][  8].l  = 0;
  BAS[ATNO][  8].ng = 14;
  BAS[ATNO][  8].a[  0] =    120165.648799999995;     BAS[ATNO][  8].d[  0] =        -0.010651376643;
  BAS[ATNO][  8].a[  1] =     18042.500169999999;     BAS[ATNO][  8].d[  1] =        -0.060173500775;
  BAS[ATNO][  8].a[  2] =      4105.180039000000;     BAS[ATNO][  8].d[  2] =        -0.260500232856;
  BAS[ATNO][  8].a[  3] =      1159.444725000000;     BAS[ATNO][  8].d[  3] =        -0.835138753550;
  BAS[ATNO][  8].a[  4] =       378.138103500000;     BAS[ATNO][  8].d[  4] =        -1.547700368529;
  BAS[ATNO][  8].a[  5] =       130.676100500000;     BAS[ATNO][  8].d[  5] =        -1.085713290410;
  BAS[ATNO][  8].a[  6] =       250.963733500000;     BAS[ATNO][  8].d[  6] =         3.720302989720;
  BAS[ATNO][  8].a[  7] =        30.265930380000;     BAS[ATNO][  8].d[  7] =        -5.485258727095;
  BAS[ATNO][  8].a[  8] =        12.668110760000;     BAS[ATNO][  8].d[  8] =        -2.834942847835;
  BAS[ATNO][  8].a[  9] =        22.697940100000;     BAS[ATNO][  8].d[  9] =         7.509515174618;
  BAS[ATNO][  8].a[ 10] =         3.867301740000;     BAS[ATNO][  8].d[ 10] =         0.770241144006;
  BAS[ATNO][  8].a[ 11] =         1.801370667000;     BAS[ATNO][  8].d[ 11] =        -0.372103901434;
  BAS[ATNO][  8].a[ 12] =         0.403086391400;     BAS[ATNO][  8].d[ 12] =         0.096377008668;
  BAS[ATNO][  8].a[ 13] =         0.151705277500;     BAS[ATNO][  8].d[ 13] =        -0.037998628077;

  // Basis function  10 L = p
  InitBFNGauss(BAS[ATNO][  9]);
  BAS[ATNO][  9].l  = 1;
  BAS[ATNO][  9].ng = 10;
  BAS[ATNO][  9].a[  0] =      1668.573662000000;     BAS[ATNO][  9].d[  0] =         0.010935414111;
  BAS[ATNO][  9].a[  1] =       394.138628000000;     BAS[ATNO][  9].d[  1] =         0.072978490950;
  BAS[ATNO][  9].a[  2] =       125.466448500000;     BAS[ATNO][  9].d[  2] =         0.276360947581;
  BAS[ATNO][  9].a[  3] =        45.704992730000;     BAS[ATNO][  9].d[  3] =         0.544662471555;
  BAS[ATNO][  9].a[  4] =        17.270133230000;     BAS[ATNO][  9].d[  4] =         0.369416795480;
  BAS[ATNO][  9].a[  5] =         9.269948777000;     BAS[ATNO][  9].d[  5] =        -0.188616534466;
  BAS[ATNO][  9].a[  6] =         3.836461772000;     BAS[ATNO][  9].d[  6] =         0.113251651213;
  BAS[ATNO][  9].a[  7] =         1.646716331000;     BAS[ATNO][  9].d[  7] =        -0.058755695958;
  BAS[ATNO][  9].a[  8] =         0.614796864900;     BAS[ATNO][  9].d[  8] =         0.021336124946;
  BAS[ATNO][  9].a[  9] =         0.183194674100;     BAS[ATNO][  9].d[  9] =        -0.005376427771;

  // Basis function  11 L = p
  InitBFNGauss(BAS[ATNO][ 10]);
  BAS[ATNO][ 10].l  = 1;
  BAS[ATNO][ 10].ng = 10;
  BAS[ATNO][ 10].a[  0] =      1668.573662000000;     BAS[ATNO][ 10].d[  0] =        -0.006548956103;
  BAS[ATNO][ 10].a[  1] =       394.138628000000;     BAS[ATNO][ 10].d[  1] =        -0.043705060352;
  BAS[ATNO][ 10].a[  2] =       125.466448500000;     BAS[ATNO][ 10].d[  2] =        -0.165505914629;
  BAS[ATNO][ 10].a[  3] =        45.704992730000;     BAS[ATNO][ 10].d[  3] =        -0.326185234592;
  BAS[ATNO][ 10].a[  4] =        17.270133230000;     BAS[ATNO][ 10].d[  4] =        -0.221234820442;
  BAS[ATNO][ 10].a[  5] =         9.269948777000;     BAS[ATNO][ 10].d[  5] =         1.225952404362;
  BAS[ATNO][ 10].a[  6] =         3.836461772000;     BAS[ATNO][ 10].d[  6] =        -0.031995142578;
  BAS[ATNO][ 10].a[  7] =         1.646716331000;     BAS[ATNO][ 10].d[  7] =         0.096169367393;
  BAS[ATNO][ 10].a[  8] =         0.614796864900;     BAS[ATNO][ 10].d[  8] =        -0.037163654295;
  BAS[ATNO][ 10].a[  9] =         0.183194674100;     BAS[ATNO][ 10].d[  9] =         0.009364386439;

  // Basis function  12 L = p
  InitBFNGauss(BAS[ATNO][ 11]);
  BAS[ATNO][ 11].l  = 1;
  BAS[ATNO][ 11].ng = 10;
  BAS[ATNO][ 11].a[  0] =      1668.573662000000;     BAS[ATNO][ 11].d[  0] =        -0.004181950978;
  BAS[ATNO][ 11].a[  1] =       394.138628000000;     BAS[ATNO][ 11].d[  1] =        -0.027908634142;
  BAS[ATNO][ 11].a[  2] =       125.466448500000;     BAS[ATNO][ 11].d[  2] =        -0.105686709560;
  BAS[ATNO][ 11].a[  3] =        45.704992730000;     BAS[ATNO][ 11].d[  3] =        -0.208291312298;
  BAS[ATNO][ 11].a[  4] =        17.270133230000;     BAS[ATNO][ 11].d[  4] =        -0.141273381468;
  BAS[ATNO][ 11].a[  5] =         9.269948777000;     BAS[ATNO][ 11].d[  5] =         1.487859675383;
  BAS[ATNO][ 11].a[  6] =         3.836461772000;     BAS[ATNO][ 11].d[  6] =        -1.349210669323;
  BAS[ATNO][ 11].a[  7] =         1.646716331000;     BAS[ATNO][ 11].d[  7] =        -0.293034925827;
  BAS[ATNO][ 11].a[  8] =         0.614796864900;     BAS[ATNO][ 11].d[  8] =         0.009970273775;
  BAS[ATNO][ 11].a[  9] =         0.183194674100;     BAS[ATNO][ 11].d[  9] =        -0.000419015856;

  // Basis function  13 L = p
  InitBFNGauss(BAS[ATNO][ 12]);
  BAS[ATNO][ 12].l  = 1;
  BAS[ATNO][ 12].ng = 10;
  BAS[ATNO][ 12].a[  0] =      1668.573662000000;     BAS[ATNO][ 12].d[  0] =         0.002979644682;
  BAS[ATNO][ 12].a[  1] =       394.138628000000;     BAS[ATNO][ 12].d[  1] =         0.019884932592;
  BAS[ATNO][ 12].a[  2] =       125.466448500000;     BAS[ATNO][ 12].d[  2] =         0.075301897070;
  BAS[ATNO][ 12].a[  3] =        45.704992730000;     BAS[ATNO][ 12].d[  3] =         0.148407789632;
  BAS[ATNO][ 12].a[  4] =        17.270133230000;     BAS[ATNO][ 12].d[  4] =         0.100657440035;
  BAS[ATNO][ 12].a[  5] =         9.269948777000;     BAS[ATNO][ 12].d[  5] =        -1.442479782221;
  BAS[ATNO][ 12].a[  6] =         3.836461772000;     BAS[ATNO][ 12].d[  6] =         2.566712886669;
  BAS[ATNO][ 12].a[  7] =         1.646716331000;     BAS[ATNO][ 12].d[  7] =        -1.641997777513;
  BAS[ATNO][ 12].a[  8] =         0.614796864900;     BAS[ATNO][ 12].d[  8] =        -0.287804319438;
  BAS[ATNO][ 12].a[  9] =         0.183194674100;     BAS[ATNO][ 12].d[  9] =         0.034785918130;

  // Basis function  14 L = p
  InitBFNGauss(BAS[ATNO][ 13]);
  BAS[ATNO][ 13].l  = 1;
  BAS[ATNO][ 13].ng = 10;
  BAS[ATNO][ 13].a[  0] =      1668.573662000000;     BAS[ATNO][ 13].d[  0] =        -0.001947798813;
  BAS[ATNO][ 13].a[  1] =       394.138628000000;     BAS[ATNO][ 13].d[  1] =        -0.012998814370;
  BAS[ATNO][ 13].a[  2] =       125.466448500000;     BAS[ATNO][ 13].d[  2] =        -0.049224978619;
  BAS[ATNO][ 13].a[  3] =        45.704992730000;     BAS[ATNO][ 13].d[  3] =        -0.097014425344;
  BAS[ATNO][ 13].a[  4] =        17.270133230000;     BAS[ATNO][ 13].d[  4] =        -0.065799940326;
  BAS[ATNO][ 13].a[  5] =         9.269948777000;     BAS[ATNO][ 13].d[  5] =         1.085789020205;
  BAS[ATNO][ 13].a[  6] =         3.836461772000;     BAS[ATNO][ 13].d[  6] =        -2.518589572876;
  BAS[ATNO][ 13].a[  7] =         1.646716331000;     BAS[ATNO][ 13].d[  7] =         3.053492731864;
  BAS[ATNO][ 13].a[  8] =         0.614796864900;     BAS[ATNO][ 13].d[  8] =        -1.944147159741;
  BAS[ATNO][ 13].a[  9] =         0.183194674100;     BAS[ATNO][ 13].d[  9] =         0.066189051405;

  // Basis function  15 L = p
  InitBFNGauss(BAS[ATNO][ 14]);
  BAS[ATNO][ 14].l  = 1;
  BAS[ATNO][ 14].ng = 10;
  BAS[ATNO][ 14].a[  0] =      1668.573662000000;     BAS[ATNO][ 14].d[  0] =         0.000696027784;
  BAS[ATNO][ 14].a[  1] =       394.138628000000;     BAS[ATNO][ 14].d[  1] =         0.004645005374;
  BAS[ATNO][ 14].a[  2] =       125.466448500000;     BAS[ATNO][ 14].d[  2] =         0.017590088121;
  BAS[ATNO][ 14].a[  3] =        45.704992730000;     BAS[ATNO][ 14].d[  3] =         0.034667202276;
  BAS[ATNO][ 14].a[  4] =        17.270133230000;     BAS[ATNO][ 14].d[  4] =         0.023512996474;
  BAS[ATNO][ 14].a[  5] =         9.269948777000;     BAS[ATNO][ 14].d[  5] =        -0.410399448835;
  BAS[ATNO][ 14].a[  6] =         3.836461772000;     BAS[ATNO][ 14].d[  6] =         1.057323092403;
  BAS[ATNO][ 14].a[  7] =         1.646716331000;     BAS[ATNO][ 14].d[  7] =        -1.595618744962;
  BAS[ATNO][ 14].a[  8] =         0.614796864900;     BAS[ATNO][ 14].d[  8] =         1.782690053923;
  BAS[ATNO][ 14].a[  9] =         0.183194674100;     BAS[ATNO][ 14].d[  9] =        -1.510328069866;

  // Basis function  16 L = d
  InitBFNGauss(BAS[ATNO][ 15]);
  BAS[ATNO][ 15].l  = 2;
  BAS[ATNO][ 15].ng = 6;
  BAS[ATNO][ 15].a[  0] =       115.558686000000;     BAS[ATNO][ 15].d[  0] =         0.028730100812;
  BAS[ATNO][ 15].a[  1] =        33.477985860000;     BAS[ATNO][ 15].d[  1] =         0.169416215565;
  BAS[ATNO][ 15].a[  2] =        11.834450210000;     BAS[ATNO][ 15].d[  2] =         0.464393543035;
  BAS[ATNO][ 15].a[  3] =         4.340825489000;     BAS[ATNO][ 15].d[  3] =         0.631109291307;
  BAS[ATNO][ 15].a[  4] =         1.507927316000;     BAS[ATNO][ 15].d[  4] =        -0.246300728939;
  BAS[ATNO][ 15].a[  5] =         0.443000000000;     BAS[ATNO][ 15].d[  5] =         0.071743367795;

  // Basis function  17 L = d
  InitBFNGauss(BAS[ATNO][ 16]);
  BAS[ATNO][ 16].l  = 2;
  BAS[ATNO][ 16].ng = 6;
  BAS[ATNO][ 16].a[  0] =       115.558686000000;     BAS[ATNO][ 16].d[  0] =        -0.009092247296;
  BAS[ATNO][ 16].a[  1] =        33.477985860000;     BAS[ATNO][ 16].d[  1] =        -0.053615340161;
  BAS[ATNO][ 16].a[  2] =        11.834450210000;     BAS[ATNO][ 16].d[  2] =        -0.146967146535;
  BAS[ATNO][ 16].a[  3] =         4.340825489000;     BAS[ATNO][ 16].d[  3] =        -0.199727866777;
  BAS[ATNO][ 16].a[  4] =         1.507927316000;     BAS[ATNO][ 16].d[  4] =         1.198084086089;
  BAS[ATNO][ 16].a[  5] =         0.443000000000;     BAS[ATNO][ 16].d[  5] =        -0.168439633250;

  // Basis function  18 L = d
  InitBFNGauss(BAS[ATNO][ 17]);
  BAS[ATNO][ 17].l  = 2;
  BAS[ATNO][ 17].ng = 6;
  BAS[ATNO][ 17].a[  0] =       115.558686000000;     BAS[ATNO][ 17].d[  0] =         0.002933424777;
  BAS[ATNO][ 17].a[  1] =        33.477985860000;     BAS[ATNO][ 17].d[  1] =         0.017297876107;
  BAS[ATNO][ 17].a[  2] =        11.834450210000;     BAS[ATNO][ 17].d[  2] =         0.047415897854;
  BAS[ATNO][ 17].a[  3] =         4.340825489000;     BAS[ATNO][ 17].d[  3] =         0.064438048591;
  BAS[ATNO][ 17].a[  4] =         1.507927316000;     BAS[ATNO][ 17].d[  4] =        -0.577981699990;
  BAS[ATNO][ 17].a[  5] =         0.443000000000;     BAS[ATNO][ 17].d[  5] =         1.195722807246;

-------
TIMINGS
-------

Total SCF time: 0 days 0 hours 0 min 2 sec 

Total time                  ....       2.162 sec
Sum of individual times     ....       1.994 sec  ( 92.2%)

Fock matrix formation       ....       1.241 sec  ( 57.4%)
  XC integration            ....       0.038 sec  (  3.1% of F)
    Basis function eval.    ....       0.005 sec  ( 13.5% of XC)
    Density eval.           ....       0.002 sec  (  5.4% of XC)
    XC-Functional eval.     ....       0.003 sec  (  8.6% of XC)
    XC-Potential eval.      ....       0.002 sec  (  5.4% of XC)
Diagonalization             ....       0.002 sec  (  0.1%)
Density matrix formation    ....       0.001 sec  (  0.0%)
Population analysis         ....       0.001 sec  (  0.0%)
Initial guess               ....       0.070 sec  (  3.3%)
Orbital Transformation      ....       0.000 sec  (  0.0%)
Orbital Orthonormalization  ....       0.000 sec  (  0.0%)
DIIS solution               ....       0.000 sec  (  0.0%)
SOSCF solution              ....       0.001 sec  (  0.0%)
Grid generation             ....       0.678 sec  ( 31.4%)

-------------------------   --------------------
FINAL SINGLE POINT ENERGY     -1269.600120785086
-------------------------   --------------------


                            ***************************************
                            *     ORCA property calculations      *
                            ***************************************

                                    ---------------------
                                    Active property flags
                                    ---------------------
   (+) Dipole Moment


------------------------------------------------------------------------------
                       ORCA ELECTRIC PROPERTIES CALCULATION
------------------------------------------------------------------------------

Dipole Moment Calculation                       ... on
Quadrupole Moment Calculation                   ... off
Polarizability Calculation                      ... off
GBWName                                         ... Kr_zora-def2-svp_2192.575824_.gbw
Electron density file                           ... Kr_zora-def2-svp_2192.575824_.scfp
The origin for moment calculation is the CENTER OF MASS  = ( 0.000000,  0.000000  0.000000)

-------------
DIPOLE MOMENT
-------------
                                X             Y             Z
Electronic contribution:      0.00000       0.00000      -0.00000
Nuclear contribution   :      0.00000       0.00000       0.00000
                        -----------------------------------------
Total Dipole Moment    :      0.00000       0.00000      -0.00000
                        -----------------------------------------
Magnitude (a.u.)       :      0.00000
Magnitude (Debye)      :      0.00000



--------------------
Rotational spectrum 
--------------------
 
Rotational constants in cm-1:     0.000000     0.000000     0.000000 
Rotational constants in MHz :     0.000000     0.000000     0.000000 

 Dipole components along the rotational axes: 
x,y,z [a.u.] :     0.000000     0.000000    -0.000000 
x,y,z [Debye]:     0.000000     0.000000    -0.000000 

 

Timings for individual modules:

Sum of individual times         ...        3.359 sec (=   0.056 min)
GTO integral calculation        ...        0.497 sec (=   0.008 min)  14.8 %
Relativistic integrals          ...        0.454 sec (=   0.008 min)  13.5 %
SCF iterations                  ...        2.408 sec (=   0.040 min)  71.7 %
                             ****ORCA TERMINATED NORMALLY****
TOTAL RUN TIME: 0 days 0 hours 0 minutes 3 seconds 701 msec
