
                                 *****************
                                 * O   R   C   A *
                                 *****************

           --- An Ab Initio, DFT and Semiempirical electronic structure package ---

                  #######################################################
                  #                        -***-                        #
                  #          Department of theory and spectroscopy      #
                  #               Directorship: Frank Neese             #
                  #        Max Planck Institute fuer Kohlenforschung    #
                  #                Kaiser Wilhelm Platz 1               #
                  #                 D-45470 Muelheim/Ruhr               #
                  #                      Germany                        #
                  #                                                     #
                  #                  All rights reserved                #
                  #                        -***-                        #
                  #######################################################


                         Program Version 4.2.1 -  RELEASE  -


 With contributions from (in alphabetic order):
   Daniel Aravena         : Magnetic Suceptibility
   Michael Atanasov       : Ab Initio Ligand Field Theory (pilot matlab implementation)
   Alexander A. Auer      : GIAO ZORA, VPT2
   Ute Becker             : Parallelization
   Giovanni Bistoni       : ED, misc. LED, open-shell LED, HFLD
   Martin Brehm           : Molecular dynamics
   Dmytro Bykov           : SCF Hessian
   Vijay G. Chilkuri      : MRCI spin determinant printing, contributions to CSF-ICE
   Dipayan Datta          : RHF DLPNO-CCSD density
   Achintya Kumar Dutta   : EOM-CC, STEOM-CC
   Dmitry Ganyushin       : Spin-Orbit,Spin-Spin,Magnetic field MRCI
   Miquel Garcia          : C-PCM Hessian, Gaussian charge scheme
   Yang Guo               : DLPNO-NEVPT2, CIM, IAO-localization
   Andreas Hansen         : Spin unrestricted coupled pair/coupled cluster methods
   Benjamin Helmich-Paris : CASSCF linear response (MC-RPA)
   Lee Huntington         : MR-EOM, pCC
   Robert Izsak           : Overlap fitted RIJCOSX, COSX-SCS-MP3, EOM
   Christian Kollmar      : KDIIS, OOCD, Brueckner-CCSD(T), CCSD density
   Simone Kossmann        : Meta GGA functionals, TD-DFT gradient, OOMP2, MP2 Hessian
   Martin Krupicka        : AUTO-CI
   Lucas Lang             : DCDCAS
   Dagmar Lenk            : GEPOL surface, SMD
   Dimitrios Liakos       : Extrapolation schemes; Compound Job, initial MDCI parallelization
   Dimitrios Manganas     : Further ROCIS development; embedding schemes
   Dimitrios Pantazis     : SARC Basis sets
   Taras Petrenko         : DFT Hessian,TD-DFT gradient, ASA, ECA, R-Raman, ABS, FL, XAS/XES, NRVS
   Peter Pinski           : DLPNO-MP2, DLPNO-MP2 Gradient
   Christoph Reimann      : Effective Core Potentials
   Marius Retegan         : Local ZFS, SOC
   Christoph Riplinger    : Optimizer, TS searches, QM/MM, DLPNO-CCSD(T), (RO)-DLPNO pert. Triples
   Tobias Risthaus        : Range-separated hybrids, TD-DFT gradient, RPA, STAB
   Michael Roemelt        : Original ROCIS implementation
   Masaaki Saitow         : Open-shell DLPNO-CCSD energy and density
   Barbara Sandhoefer     : DKH picture change effects
   Avijit Sen             : IP-ROCIS
   Kantharuban Sivalingam : CASSCF convergence, NEVPT2, FIC-MRCI
   Bernardo de Souza      : ESD, SOC TD-DFT
   Georgi Stoychev        : AutoAux, RI-MP2 NMR
   Willem Van den Heuvel  : Paramagnetic NMR
   Boris Wezisla          : Elementary symmetry handling
   Frank Wennmohs         : Technical directorship


 We gratefully acknowledge several colleagues who have allowed us to
 interface, adapt or use parts of their codes:
   Stefan Grimme, W. Hujo, H. Kruse,             : VdW corrections, initial TS optimization,
                  C. Bannwarth                     DFT functionals, gCP, sTDA/sTD-DF
   Ed Valeev, F. Pavosevic, A. Kumar             : LibInt (2-el integral package), F12 methods
   Garnet Chan, S. Sharma, J. Yang, R. Olivares  : DMRG
   Ulf Ekstrom                                   : XCFun DFT Library
   Mihaly Kallay                                 : mrcc  (arbitrary order and MRCC methods)
   Andreas Klamt, Michael Diedenhofen            : otool_cosmo (COSMO solvation model)
   Jiri Pittner, Ondrej Demel                    : Mk-CCSD
   Frank Weinhold                                : gennbo (NPA and NBO analysis)
   Christopher J. Cramer and Donald G. Truhlar   : smd solvation model
   Lars Goerigk                                  : TD-DFT with DH, B97 family of functionals
   V. Asgeirsson, H. Jonsson                     : NEB implementation
   FAccTs GmbH                                   : IRC, NEB, NEB-TS, Multilevel, MM, QM/MM, CI optimization
   S Lehtola, MJT Oliveira, MAL Marques          : LibXC Library


 Your calculation uses the libint2 library for the computation of 2-el integrals
 For citations please refer to: http://libint.valeyev.net

 Your ORCA version has been built with support for libXC version: 4.2.3
 For citations please refer to: https://tddft.org/programs/libxc/

 This ORCA versions uses:
   CBLAS   interface :  Fast vector & matrix operations
   LAPACKE interface :  Fast linear algebra routines
   SCALAPACK package :  Parallel linear algebra routines


----- Orbital basis set information -----
Your calculation utilizes the basis: ZORA-def2-SVP 
   Exponents from def2-SVP [F. Weigend and R. Ahlrichs, Phys. Chem. Chem. Phys. 7, 3297 (2005)],
   recontracted for ZORA by D. A. Pantazis.

================================================================================
                                        WARNINGS
                       Please study these warnings very carefully!
================================================================================


INFO   : the flag for use of LIBINT has been found!

================================================================================
                                       INPUT FILE
================================================================================
NAME = Kr_zora-def2-svp_548.143956_.inp
|  1> ! LDA zora-def2-svp nori grid5 finalgrid6 verytightscf
|  2> %Pal NProcs 18 End
|  3> 
|  4> % REL
|  5>   Method ZORA
|  6>   ModelPot 1, 0, 0, 0
|  7>   velit 548.143956
|  8> END
|  9> 
| 10> *xyz 34 1
| 11> Kr 0.0 0.0 0.0
| 12> **                         ****END OF INPUT****
================================================================================

                       ****************************
                       * Single Point Calculation *
                       ****************************

---------------------------------
CARTESIAN COORDINATES (ANGSTROEM)
---------------------------------
  Kr     0.000000    0.000000    0.000000

----------------------------
CARTESIAN COORDINATES (A.U.)
----------------------------
  NO LB      ZA    FRAG     MASS         X           Y           Z
   0 Kr   36.0000    0    83.800    0.000000    0.000000    0.000000

--------------------------------
INTERNAL COORDINATES (ANGSTROEM)
--------------------------------
 Kr     0   0   0     0.000000000000     0.00000000     0.00000000

---------------------------
INTERNAL COORDINATES (A.U.)
---------------------------
 Kr     0   0   0     0.000000000000     0.00000000     0.00000000

---------------------
BASIS SET INFORMATION
---------------------
There are 1 groups of distinct atoms

 Group   1 Type Kr  : 14s10p6d contracted to 9s6p3d pattern {611111111/511111/411}

Atom   0Kr   basis set group =>   1


           ************************************************************
           *        Program running with 18 parallel MPI-processes    *
           *              working on a common directory               *
           ************************************************************
------------------------------------------------------------------------------
                           ORCA GTO INTEGRAL CALCULATION
------------------------------------------------------------------------------

                         BASIS SET STATISTICS AND STARTUP INFO

 # of primitive gaussian shells          ...   30
 # of primitive gaussian functions       ...   74
 # of contracted shells                  ...   18
 # of contracted basis functions         ...   42
 Highest angular momentum                ...    2
 Maximum contraction depth               ...    6
 Integral package used                   ... LIBINT
 Integral threshhold            Thresh   ...  1.000e-12
 Primitive cut-off              TCut     ...  1.000e-14


------------------------------ INTEGRAL EVALUATION ----------------------------


 * One electron integrals 
 Pre-screening matrix                    ... done
 Shell pair data                         ... done (   0.000 sec)



           ************************************************************
           *        Program running with 18 parallel MPI-processes    *
           *              working on a common directory               *
           ************************************************************
------------------------------------------------------------------------------
                          ORCA RELATIVISTIC HAMILTONIAN
------------------------------------------------------------------------------

Relativistic Method            ... ZORA(MP)
Treatment of potential         ... Van Wuellen
Nucleus model                  ... Point Nucleus
Speed of light used            ... 548.14395600000000


            *************************************************
            *         ZERO ORDER REGULAR APPROXIMATION      *
            *                     ZORA(MP)                  *
            *            Programmed by FN according to      *
            *                   C. van Wuellen              *
            *       J. Chem. Phys. (1998) vol 109, 392-399  *
            *************************************************

Terms included in model potential: +V(e,N)
Basis function cutoff value   ... 1.000000e-12
Loading the fitted atomic densities  (DKH4)  ... done
Calculating the cutoffs                      ... done
Number of fit functions                      ... 27
Setting up the integration grid ... done


           ************************************************************
           *        Program running with 18 parallel MPI-processes    *
           *              working on a common directory               *
           ************************************************************
-------------------------------------------------------------------------------
                                 ORCA SCF
-------------------------------------------------------------------------------

------------
SCF SETTINGS
------------
Hamiltonian:
 Density Functional     Method          .... DFT(GTOs)
 Exchange Functional    Exchange        .... Slater
   X-Alpha parameter    XAlpha          ....  0.666667
 Correlation Functional Correlation     .... VWN-5
 Gradients option       PostSCFGGA      .... off
   Density functional embedding theory  .... OFF

Relativistic Settings:
 Scalar relativistic method             .... ZORA
 Speed of light used       Velit        ....       548.143956
Orbital energies will be scaled


General Settings:
 Integral files         IntName         .... Kr_zora-def2-svp_548.143956_
 Hartree-Fock type      HFTyp           .... RHF
 Total Charge           Charge          ....   34
 Multiplicity           Mult            ....    1
 Number of Electrons    NEL             ....    2
 Basis Dimension        Dim             ....   42
 Nuclear Repulsion      ENuc            ....      0.0000000000 Eh

Convergence Acceleration:
 DIIS                   CNVDIIS         .... on
   Start iteration      DIISMaxIt       ....    12
   Startup error        DIISStart       ....  0.200000
   # of expansion vecs  DIISMaxEq       ....     5
   Bias factor          DIISBfac        ....   1.050
   Max. coefficient     DIISMaxC        ....  10.000
 Newton-Raphson         CNVNR           .... off
 SOSCF                  CNVSOSCF        .... on
   Start iteration      SOSCFMaxIt      ....   150
   Startup grad/error   SOSCFStart      ....  0.003300
 Level Shifting         CNVShift        .... on
   Level shift para.    LevelShift      ....    0.2500
   Turn off err/grad.   ShiftErr        ....    0.0010
 Zerner damping         CNVZerner       .... off
 Static damping         CNVDamp         .... on
   Fraction old density DampFac         ....    0.7000
   Max. Damping (<1)    DampMax         ....    0.9800
   Min. Damping (>=0)   DampMin         ....    0.0000
   Turn off err/grad.   DampErr         ....    0.1000
 Fernandez-Rico         CNVRico         .... off

SCF Procedure:
 Maximum # iterations   MaxIter         ....   125
 SCF integral mode      SCFMode         .... Direct
   Integral package                     .... LIBINT
 Reset frequency        DirectResetFreq ....    20
 Integral Threshold     Thresh          ....  1.000e-12 Eh
 Primitive CutOff       TCut            ....  1.000e-14 Eh

Convergence Tolerance:
 Convergence Check Mode ConvCheckMode   .... Total+1el-Energy
 Convergence forced     ConvForced      .... 0
 Energy Change          TolE            ....  1.000e-09 Eh
 1-El. energy change                    ....  1.000e-06 Eh
 Orbital Gradient       TolG            ....  2.000e-06
 Orbital Rotation angle TolX            ....  2.000e-06
 DIIS Error             TolErr          ....  1.000e-08


Diagonalization of the overlap matrix:
Smallest eigenvalue                        ... 5.579e-04
Time for diagonalization                   ...    0.001 sec
Threshold for overlap eigenvalues          ... 1.000e-08
Number of eigenvalues below threshold      ... 0
Time for construction of square roots      ...    0.001 sec
Total time needed                          ...    0.002 sec

-------------------
DFT GRID GENERATION
-------------------

General Integration Accuracy     IntAcc      ...  5.010
Radial Grid Type                 RadialGrid  ... Gauss-Chebyshev
Angular Grid (max. acc.)         AngularGrid ... Lebedev-434
Angular grid pruning method      GridPruning ... 3 (G Style)
Weight generation scheme         WeightScheme... Becke
Basis function cutoff            BFCut       ...    1.0000e-12
Integration weight cutoff        WCut        ...    1.0000e-14
Grids for H and He will be reduced by one unit

# of grid points (after initial pruning)     ...  16106 (   0.0 sec)
# of grid points (after weights+screening)   ...  16106 (   0.0 sec)
Grid point division into batches done        ...    0.2 sec
Reduced shell lists constructed in    0.2 sec

Total number of grid points                  ...    16106
Total number of batches                      ...      252
Average number of points per batch           ...       63
Average number of grid points per atom       ...    16106
Average number of shells per batch           ...     0.00 ( 0.00%)
Average number of basis functions per batch  ...     0.00 ( 0.00%)
Average number of large shells per batch     ...     0.00 ( -nan%)
Average number of large basis fcns per batch ...     0.00 ( -nan%)
Maximum spatial batch extension              ...  17.34, 17.34, 17.34 au
Average spatial batch extension              ...   0.86,  0.87,  0.87 au

Time for grid setup =    0.238 sec

------------------------------
INITIAL GUESS: MODEL POTENTIAL
------------------------------
Loading ZORA relativistic densities                ... done
Calculating cut-offs                               ... done
Setting up the integral package                    ... done
Initializing the effective Hamiltonian             ... done
Starting the Coulomb interaction                   ... done (   0.0 sec)
Reading the grid                                   ... done
Mapping shells                                     ... done
Starting the XC term evaluation                    ... done (   0.0 sec)
  promolecular density results
     # of electrons  =     36.000000565
     EX              =    -91.042004939
     EC              =     -3.295965580
     EX+EC           =    -94.337970520
Transforming the Hamiltonian                       ... done (   0.0 sec)
Diagonalizing the Hamiltonian                      ... done (   0.0 sec)
Back transforming the eigenvectors                 ... done (   0.0 sec)
Now organizing SCF variables                       ... done
                      ------------------
                      INITIAL GUESS DONE (   0.3 sec)
                      ------------------
--------------
SCF ITERATIONS
--------------
ITER       Energy         Delta-E        Max-DP      RMS-DP      [F,P]     Damp
               ***  Starting incremental Fock matrix formation  ***
  0  -1272.2137739169   0.000000000000 0.03681162  0.00131424  6.6105229 0.7000
  1  -1272.2378293538  -0.024055436909 0.02566734  0.00091646  4.6094824 0.7000
  2  -1272.2545728803  -0.016743526442 0.01788639  0.00063871  3.2135484 0.7000
  3  -1272.2662472360  -0.011674355772 0.01246431  0.00044514  2.2404104 0.7000
  4  -1272.2743969639  -0.008149727869 0.00868594  0.00031024  1.5619903 0.7000
  5  -1272.2800909668  -0.005694002877 0.00605298  0.00021622  1.0890196 0.7000
  6  -1272.2840715361  -0.003980569356 0.00421817  0.00015069  0.7592741 0.7000
                      *** Initiating the SOSCF procedure ***
                      *** Re-Reading the Fockian *** 
                      *** Removing any level shift *** 
ITER      Energy       Delta-E        Grad      Rot      Max-DP    RMS-DP
  7  -1272.28685540  -0.0027838646  0.002329  0.002329  0.009799  0.000350
               *** Restarting incremental Fock matrix formation ***
  8  -1272.29334308  -0.0064876775  0.005405  0.000005  0.000102  0.000004
  9  -1272.29334315  -0.0000000741  0.000071  0.000000  0.000001  0.000000
                 **** Energy Check signals convergence ****
              ***Rediagonalizing the Fockian in SOSCF/NRSCF***

               *****************************************************
               *                     SUCCESS                       *
               *           SCF CONVERGED AFTER  10 CYCLES          *
               *****************************************************

Setting up the final grid:

General Integration Accuracy     IntAcc      ...  5.340
Radial Grid Type                 RadialGrid  ... Gauss-Chebyshev
Angular Grid (max. acc.)         AngularGrid ... Lebedev-590
Angular grid pruning method      GridPruning ... 3 (G Style)
Weight generation scheme         WeightScheme... Becke
Basis function cutoff            BFCut       ...    1.0000e-12
Integration weight cutoff        WCut        ...    1.0000e-14
Grids for H and He will be reduced by one unit

# of grid points (after initial pruning)     ...  24180 (   0.0 sec)
# of grid points (after weights+screening)   ...  24180 (   0.0 sec)
Grid point division into batches done        ...    0.4 sec
Reduced shell lists constructed in    0.4 sec

Total number of grid points                  ...    24180
Total number of batches                      ...      378
Average number of points per batch           ...       63
Average number of grid points per atom       ...    24180
Average number of shells per batch           ...     0.00 ( 0.00%)
Average number of basis functions per batch  ...     0.00 ( 0.00%)
Average number of large shells per batch     ...     0.00 ( -nan%)
Average number of large basis fcns per batch ...     0.00 ( -nan%)
Maximum spatial batch extension              ...  17.58, 17.58, 17.58 au
Average spatial batch extension              ...   0.77,  0.77,  0.77 au

Final grid set up in    0.4 sec
Final integration                            ... done (   0.0 sec)
Change in XC energy                          ...     0.000003977
Integrated number of electrons               ...     1.999999744
Previous integrated no of electrons          ...     1.999999533

----------------
TOTAL SCF ENERGY
----------------

Total Energy       :        -1272.29333918 Eh          -34620.86185 eV

Components:
Nuclear Repulsion  :            0.00000000 Eh               0.00000 eV
Electronic Energy  :        -1272.29333918 Eh          -34620.86185 eV
One Electron Energy:        -1297.36742685 Eh          -35303.16246 eV
Two Electron Energy:           25.07408767 Eh             682.30061 eV

Virial components:
Potential Energy   :        -2550.12173460 Eh          -69392.34024 eV
Kinetic Energy     :         1277.82839542 Eh           34771.47839 eV
Virial Ratio       :            1.99566839


DFT components:
N(Alpha)           :        0.999999871769 electrons
N(Beta)            :        0.999999871769 electrons
N(Total)           :        1.999999743538 electrons
E(X)               :      -19.057001749028 Eh       
E(C)               :       -0.277913854555 Eh       
E(XC)              :      -19.334915603583 Eh       
DFET-embed. en.    :        0.000000000000 Eh       

---------------
SCF CONVERGENCE
---------------

  Last Energy change         ...   -1.3642e-11  Tolerance :   1.0000e-09
  Last MAX-Density change    ...    0.0000e+00  Tolerance :   1.0000e-08
  Last RMS-Density change    ...    0.0000e+00  Tolerance :   1.0000e-09
  Last Orbital Gradient      ...    2.5688e-10  Tolerance :   2.0000e-06
  Last Orbital Rotation      ...    0.0000e+00  Tolerance :   2.0000e-06

================================================================================
                                        WARNING
Number of found core electrons (2) does not match given number of chemical core electrons (18)
================================================================================
             **** THE GBW FILE WAS UPDATED (Kr_zora-def2-svp_548.143956_.gbw) ****
             **** DENSITY FILE WAS UPDATED (Kr_zora-def2-svp_548.143956_.scfp) ****
             **** ENERGY FILE WAS UPDATED (Kr_zora-def2-svp_548.143956_.en.tmp) ****
             **** THE GBW FILE WAS UPDATED (Kr_zora-def2-svp_548.143956_.gbw) ****
             **** DENSITY FILE WAS UPDATED (Kr_zora-def2-svp_548.143956_.scfp) ****
----------------
ORBITAL ENERGIES
----------------

  NO   OCC          E(Eh)            E(eV) 
   0   2.0000    -617.128174    -16792.9114 
   1   0.0000    -149.015445     -4054.9164 
   2   0.0000    -147.140251     -4003.8898 
   3   0.0000    -147.140251     -4003.8898 
   4   0.0000    -147.140251     -4003.8898 
   5   0.0000     -65.379948     -1779.0788 
   6   0.0000     -64.414013     -1752.7944 
   7   0.0000     -64.414013     -1752.7944 
   8   0.0000     -64.414013     -1752.7944 
   9   0.0000     -58.860088     -1601.6644 
  10   0.0000     -58.860088     -1601.6644 
  11   0.0000     -58.860088     -1601.6644 
  12   0.0000     -58.860088     -1601.6644 
  13   0.0000     -58.860088     -1601.6644 
  14   0.0000     -36.371993      -989.7322 
  15   0.0000     -36.006319      -979.7818 
  16   0.0000     -36.006319      -979.7818 
  17   0.0000     -36.006319      -979.7818 
  18   0.0000     -27.847885      -757.7795 
  19   0.0000     -27.847885      -757.7795 
  20   0.0000     -27.847885      -757.7795 
  21   0.0000     -27.847885      -757.7795 
  22   0.0000     -27.847885      -757.7795 
  23   0.0000     -22.972635      -625.1172 
  24   0.0000     -22.972635      -625.1172 
  25   0.0000     -22.972635      -625.1172 
  26   0.0000     -22.186801      -603.7336 
  27   0.0000     -15.903811      -432.7647 
  28   0.0000     -15.903811      -432.7647 
  29   0.0000     -15.903811      -432.7647 
  30   0.0000     -15.213088      -413.9692 
  31   0.0000     -15.121683      -411.4819 
  32   0.0000     -15.121683      -411.4819 
  33   0.0000     -15.121683      -411.4819 
  34   0.0000     -15.121683      -411.4819 
  35   0.0000     -15.121683      -411.4819 
  36   0.0000     -10.564485      -287.4743 
  37   0.0000     -10.518623      -286.2263 
  38   0.0000     -10.518623      -286.2263 
  39   0.0000     -10.518623      -286.2263 
  40   0.0000      44.583150      1213.1692 
  41   0.0000    1188.747392     32347.4610 

                    ********************************
                    * MULLIKEN POPULATION ANALYSIS *
                    ********************************

-----------------------
MULLIKEN ATOMIC CHARGES
-----------------------
   0 Kr:   34.000000
Sum of atomic charges:   34.0000000

--------------------------------
MULLIKEN REDUCED ORBITAL CHARGES
--------------------------------
  0 Krs       :     2.000000  s :     2.000000
      pz      :     0.000000  p :     0.000000
      px      :     0.000000
      py      :     0.000000
      dz2     :     0.000000  d :     0.000000
      dxz     :     0.000000
      dyz     :     0.000000
      dx2y2   :     0.000000
      dxy     :     0.000000


                     *******************************
                     * LOEWDIN POPULATION ANALYSIS *
                     *******************************

----------------------
LOEWDIN ATOMIC CHARGES
----------------------
   0 Kr:   34.000000

-------------------------------
LOEWDIN REDUCED ORBITAL CHARGES
-------------------------------
  0 Krs       :     2.000000  s :     2.000000
      pz      :     0.000000  p :     0.000000
      px      :     0.000000
      py      :     0.000000
      dz2     :     0.000000  d :     0.000000
      dxz     :     0.000000
      dyz     :     0.000000
      dx2y2   :     0.000000
      dxy     :     0.000000


                      *****************************
                      * MAYER POPULATION ANALYSIS *
                      *****************************

  NA   - Mulliken gross atomic population
  ZA   - Total nuclear charge
  QA   - Mulliken gross atomic charge
  VA   - Mayer's total valence
  BVA  - Mayer's bonded valence
  FA   - Mayer's free valence

  ATOM       NA         ZA         QA         VA         BVA        FA
  0 Kr     2.0000    36.0000    34.0000    -0.0000     0.0000    -0.0000

  Mayer bond orders larger than 0.100000


--------------------------
ATOM BASIS FOR ELEMENT Kr
--------------------------
 NewGTO Kr
 S 14
    1     120165.648799999995         0.002803298219
    2      18042.500169999999         0.015836851254
    3       4105.180039000000         0.068560136708
    4       1159.444725000000         0.219797220470
    5        378.138103500000         0.407333796543
    6        130.676100500000         0.285745048287
    7        250.963733500000         0.118541101399
    8         30.265930380000         0.118145907525
    9         12.668110760000         0.028628526961
   10         22.697940100000        -0.112946978931
   11          3.867301740000        -0.005784249763
   12          1.801370667000         0.002626024043
   13          0.403086391400        -0.000651030632
   14          0.151705277500         0.000254110434
 S 14
    1     120165.648799999995         0.001077474297
    2      18042.500169999999         0.006087044201
    3       4105.180039000000         0.026351739741
    4       1159.444725000000         0.084481149362
    5        378.138103500000         0.156562613633
    6        130.676100500000         0.109828823368
    7        250.963733500000         0.178926718384
    8         30.265930380000        -1.062331106328
    9         12.668110760000        -0.373142098977
   10         22.697940100000         0.269549855676
   11          3.867301740000         0.037942401323
   12          1.801370667000        -0.018297973056
   13          0.403086391400         0.004616517436
   14          0.151705277500        -0.001795279894
 S 14
    1     120165.648799999995        -0.000587103953
    2      18042.500169999999        -0.003316763770
    3       4105.180039000000        -0.014358774597
    4       1159.444725000000        -0.046032853745
    5        378.138103500000        -0.085309254783
    6        130.676100500000        -0.059844523912
    7        250.963733500000        -0.112593690944
    8         30.265930380000         0.710435106044
    9         12.668110760000        -0.957475092493
   10         22.697940100000         0.816985403235
   11          3.867301740000        -1.028399900889
   12          1.801370667000         0.239504836819
   13          0.403086391400        -0.050455496060
   14          0.151705277500         0.018885865384
 S 14
    1     120165.648799999995        -0.000381538650
    2      18042.500169999999        -0.002155450605
    3       4105.180039000000        -0.009331273357
    4       1159.444725000000        -0.029915167118
    5        378.138103500000        -0.055439548190
    6        130.676100500000        -0.038890896137
    7        250.963733500000        -0.073566737786
    8         30.265930380000         0.085602751332
    9         12.668110760000        -2.366485090667
   10         22.697940100000         1.883875758582
   11          3.867301740000        -0.533242929260
   12          1.801370667000         1.685641508559
   13          0.403086391400        -0.158170551526
   14          0.151705277500         0.056440547404
 S 14
    1     120165.648799999995        -0.000312229380
    2      18042.500169999999        -0.001763897334
    3       4105.180039000000        -0.007636179718
    4       1159.444725000000        -0.024480859543
    5        378.138103500000        -0.045368551245
    6        130.676100500000        -0.031826082138
    7        250.963733500000        -0.056757675977
    8         30.265930380000        -0.588081891483
    9         12.668110760000        -4.070751609666
   10         22.697940100000         3.267109034417
   11          3.867301740000         2.550518878258
   12          1.801370667000        -0.506682363006
   13          0.403086391400        -1.276479079206
   14          0.151705277500         0.349160147453
 S 14
    1     120165.648799999995        -0.000324106551
    2      18042.500169999999        -0.001830995790
    3       4105.180039000000        -0.007926659137
    4       1159.444725000000        -0.025412108693
    5        378.138103500000        -0.047094365843
    6        130.676100500000        -0.033036742730
    7        250.963733500000        -0.058550890642
    8         30.265930380000        -0.822120537506
    9         12.668110760000        -5.344519307233
   10         22.697940100000         4.079414166457
   11          3.867301740000         5.424119504792
   12          1.801370667000        -4.296183650052
   13          0.403086391400         1.434693277652
   14          0.151705277500         0.031322712620
 S 14
    1     120165.648799999995        -0.000128061493
    2      18042.500169999999        -0.000723465953
    3       4105.180039000000        -0.003131994095
    4       1159.444725000000        -0.010040872579
    5        378.138103500000        -0.018608000318
    6        130.676100500000        -0.013053530039
    7        250.963733500000        -0.024078478953
    8         30.265930380000        -0.251073700607
    9         12.668110760000        -2.186552392128
   10         22.697940100000         1.529156175606
   11          3.867301740000         2.677804760732
   12          1.801370667000        -2.687431104392
   13          0.403086391400         2.686488041409
   14          0.151705277500        -2.226164710185
 S 14
    1     120165.648799999995         0.001051497852
    2      18042.500169999999         0.005940293817
    3       4105.180039000000         0.025716435021
    4       1159.444725000000         0.082444423385
    5        378.138103500000         0.152788101275
    6        130.676100500000         0.107180999335
    7        250.963733500000         0.350988776376
    8         30.265930380000       -20.496656149331
    9         12.668110760000       -14.042931433666
   10         22.697940100000        31.269779348172
   11          3.867301740000         4.478376105554
   12          1.801370667000        -2.240289887164
   13          0.403086391400         0.609148502055
   14          0.151705277500        -0.246875536497
 S 14
    1     120165.648799999995        -0.010643742597
    2      18042.500169999999        -0.060130373272
    3       4105.180039000000        -0.260313527339
    4       1159.444725000000        -0.834540193573
    5        378.138103500000        -1.546591101964
    6        130.676100500000        -1.084935138852
    7        250.963733500000         3.721199538356
    8         30.265930380000        -5.508783687016
    9         12.668110760000        -2.846335619406
   10         22.697940100000         7.540782235722
   11          3.867301740000         0.773221043483
   12          1.801370667000        -0.373528260857
   13          0.403086391400         0.096744476222
   14          0.151705277500        -0.038143717779
 P 10
    1       1668.573662000000         0.010941842372
    2        394.138628000000         0.073021390545
    3        125.466448500000         0.276523403293
    4         45.704992730000         0.544982645337
    5         17.270133230000         0.369633953039
    6          9.269948777000        -0.190279415316
    7          3.836461772000         0.114455432859
    8          1.646716331000        -0.059429172919
    9          0.614796864900         0.021587762561
   10          0.183194674100        -0.005440491078
 P 10
    1       1668.573662000000         0.006545962952
    2        394.138628000000         0.043685085284
    3        125.466448500000         0.165430271399
    4         45.704992730000         0.326036154092
    5         17.270133230000         0.221133706737
    6          9.269948777000        -1.227593192120
    7          3.836461772000         0.034262296362
    8          1.646716331000        -0.097117571932
    9          0.614796864900         0.037504248848
   10          0.183194674100        -0.009448735584
 P 10
    1       1668.573662000000         0.004176735687
    2        394.138628000000         0.027873829419
    3        125.466448500000         0.105554908176
    4         45.704992730000         0.208031553211
    5         17.270133230000         0.141097200118
    6          9.269948777000        -1.488281917572
    7          3.836461772000         1.351764229598
    8          1.646716331000         0.290960177163
    9          0.614796864900        -0.009499609691
   10          0.183194674100         0.000310973259
 P 10
    1       1668.573662000000         0.002973813423
    2        394.138628000000         0.019846017151
    3        125.466448500000         0.075154528880
    4         45.704992730000         0.148117350901
    5         17.270133230000         0.100460450246
    6          9.269948777000        -1.441701891812
    7          3.836461772000         2.567391615842
    8          1.646716331000        -1.644206620810
    9          0.614796864900        -0.286416991325
   10          0.183194674100         0.034566068840
 P 10
    1       1668.573662000000         0.001942518542
    2        394.138628000000         0.012963575990
    3        125.466448500000         0.049091535025
    4         45.704992730000         0.096751429728
    5         17.270133230000         0.065621563803
    6          9.269948777000        -1.084317683740
    7          3.836461772000         2.516824246114
    8          1.646716331000        -3.052859769686
    9          0.614796864900         1.944655106269
   10          0.183194674100        -0.066495987980
 P 10
    1       1668.573662000000         0.000694167189
    2        394.138628000000         0.004632588522
    3        125.466448500000         0.017543066965
    4         45.704992730000         0.034574531227
    5         17.270133230000         0.023450142424
    6          9.269948777000        -0.409819207768
    7          3.836461772000         1.056416195625
    8          1.646716331000        -1.594852448226
    9          0.614796864900         1.782351842130
   10          0.183194674100        -1.510318906307
 D 6
    1        115.558686000000         0.028730697165
    2         33.477985860000         0.169419732150
    3         11.834450210000         0.464403182485
    4          4.340825489000         0.631122391288
    5          1.507927316000        -0.246381838482
    6          0.443000000000         0.071769448070
 D 6
    1        115.558686000000         0.009090535937
    2         33.477985860000         0.053605248583
    3         11.834450210000         0.146939484108
    4          4.340825489000         0.199690273629
    5          1.507927316000        -1.198079053236
    6          0.443000000000         0.168456083682
 D 6
    1        115.558686000000         0.002932887877
    2         33.477985860000         0.017294710101
    3         11.834450210000         0.047407219391
    4          4.340825489000         0.064426254589
    5          1.507927316000        -0.577957562285
    6          0.443000000000         1.195718924679
 end
  // -----------------------------------------------
  // The basis set
  // -----------------------------------------------
  BAS[ATNO] = new BFNGauss[NSH];
  // Basis function   1 L = s
  InitBFNGauss(BAS[ATNO][  0]);
  BAS[ATNO][  0].l  = 0;
  BAS[ATNO][  0].ng = 14;
  BAS[ATNO][  0].a[  0] =    120165.648799999995;     BAS[ATNO][  0].d[  0] =         0.002803298219;
  BAS[ATNO][  0].a[  1] =     18042.500169999999;     BAS[ATNO][  0].d[  1] =         0.015836851254;
  BAS[ATNO][  0].a[  2] =      4105.180039000000;     BAS[ATNO][  0].d[  2] =         0.068560136708;
  BAS[ATNO][  0].a[  3] =      1159.444725000000;     BAS[ATNO][  0].d[  3] =         0.219797220470;
  BAS[ATNO][  0].a[  4] =       378.138103500000;     BAS[ATNO][  0].d[  4] =         0.407333796543;
  BAS[ATNO][  0].a[  5] =       130.676100500000;     BAS[ATNO][  0].d[  5] =         0.285745048287;
  BAS[ATNO][  0].a[  6] =       250.963733500000;     BAS[ATNO][  0].d[  6] =         0.118541101399;
  BAS[ATNO][  0].a[  7] =        30.265930380000;     BAS[ATNO][  0].d[  7] =         0.118145907525;
  BAS[ATNO][  0].a[  8] =        12.668110760000;     BAS[ATNO][  0].d[  8] =         0.028628526961;
  BAS[ATNO][  0].a[  9] =        22.697940100000;     BAS[ATNO][  0].d[  9] =        -0.112946978931;
  BAS[ATNO][  0].a[ 10] =         3.867301740000;     BAS[ATNO][  0].d[ 10] =        -0.005784249763;
  BAS[ATNO][  0].a[ 11] =         1.801370667000;     BAS[ATNO][  0].d[ 11] =         0.002626024043;
  BAS[ATNO][  0].a[ 12] =         0.403086391400;     BAS[ATNO][  0].d[ 12] =        -0.000651030632;
  BAS[ATNO][  0].a[ 13] =         0.151705277500;     BAS[ATNO][  0].d[ 13] =         0.000254110434;

  // Basis function   2 L = s
  InitBFNGauss(BAS[ATNO][  1]);
  BAS[ATNO][  1].l  = 0;
  BAS[ATNO][  1].ng = 14;
  BAS[ATNO][  1].a[  0] =    120165.648799999995;     BAS[ATNO][  1].d[  0] =        -0.001077474297;
  BAS[ATNO][  1].a[  1] =     18042.500169999999;     BAS[ATNO][  1].d[  1] =        -0.006087044201;
  BAS[ATNO][  1].a[  2] =      4105.180039000000;     BAS[ATNO][  1].d[  2] =        -0.026351739741;
  BAS[ATNO][  1].a[  3] =      1159.444725000000;     BAS[ATNO][  1].d[  3] =        -0.084481149362;
  BAS[ATNO][  1].a[  4] =       378.138103500000;     BAS[ATNO][  1].d[  4] =        -0.156562613633;
  BAS[ATNO][  1].a[  5] =       130.676100500000;     BAS[ATNO][  1].d[  5] =        -0.109828823368;
  BAS[ATNO][  1].a[  6] =       250.963733500000;     BAS[ATNO][  1].d[  6] =        -0.178926718384;
  BAS[ATNO][  1].a[  7] =        30.265930380000;     BAS[ATNO][  1].d[  7] =         1.062331106328;
  BAS[ATNO][  1].a[  8] =        12.668110760000;     BAS[ATNO][  1].d[  8] =         0.373142098977;
  BAS[ATNO][  1].a[  9] =        22.697940100000;     BAS[ATNO][  1].d[  9] =        -0.269549855676;
  BAS[ATNO][  1].a[ 10] =         3.867301740000;     BAS[ATNO][  1].d[ 10] =        -0.037942401323;
  BAS[ATNO][  1].a[ 11] =         1.801370667000;     BAS[ATNO][  1].d[ 11] =         0.018297973056;
  BAS[ATNO][  1].a[ 12] =         0.403086391400;     BAS[ATNO][  1].d[ 12] =        -0.004616517436;
  BAS[ATNO][  1].a[ 13] =         0.151705277500;     BAS[ATNO][  1].d[ 13] =         0.001795279894;

  // Basis function   3 L = s
  InitBFNGauss(BAS[ATNO][  2]);
  BAS[ATNO][  2].l  = 0;
  BAS[ATNO][  2].ng = 14;
  BAS[ATNO][  2].a[  0] =    120165.648799999995;     BAS[ATNO][  2].d[  0] =         0.000587103953;
  BAS[ATNO][  2].a[  1] =     18042.500169999999;     BAS[ATNO][  2].d[  1] =         0.003316763770;
  BAS[ATNO][  2].a[  2] =      4105.180039000000;     BAS[ATNO][  2].d[  2] =         0.014358774597;
  BAS[ATNO][  2].a[  3] =      1159.444725000000;     BAS[ATNO][  2].d[  3] =         0.046032853745;
  BAS[ATNO][  2].a[  4] =       378.138103500000;     BAS[ATNO][  2].d[  4] =         0.085309254783;
  BAS[ATNO][  2].a[  5] =       130.676100500000;     BAS[ATNO][  2].d[  5] =         0.059844523912;
  BAS[ATNO][  2].a[  6] =       250.963733500000;     BAS[ATNO][  2].d[  6] =         0.112593690944;
  BAS[ATNO][  2].a[  7] =        30.265930380000;     BAS[ATNO][  2].d[  7] =        -0.710435106044;
  BAS[ATNO][  2].a[  8] =        12.668110760000;     BAS[ATNO][  2].d[  8] =         0.957475092493;
  BAS[ATNO][  2].a[  9] =        22.697940100000;     BAS[ATNO][  2].d[  9] =        -0.816985403235;
  BAS[ATNO][  2].a[ 10] =         3.867301740000;     BAS[ATNO][  2].d[ 10] =         1.028399900889;
  BAS[ATNO][  2].a[ 11] =         1.801370667000;     BAS[ATNO][  2].d[ 11] =        -0.239504836819;
  BAS[ATNO][  2].a[ 12] =         0.403086391400;     BAS[ATNO][  2].d[ 12] =         0.050455496060;
  BAS[ATNO][  2].a[ 13] =         0.151705277500;     BAS[ATNO][  2].d[ 13] =        -0.018885865384;

  // Basis function   4 L = s
  InitBFNGauss(BAS[ATNO][  3]);
  BAS[ATNO][  3].l  = 0;
  BAS[ATNO][  3].ng = 14;
  BAS[ATNO][  3].a[  0] =    120165.648799999995;     BAS[ATNO][  3].d[  0] =         0.000381538650;
  BAS[ATNO][  3].a[  1] =     18042.500169999999;     BAS[ATNO][  3].d[  1] =         0.002155450605;
  BAS[ATNO][  3].a[  2] =      4105.180039000000;     BAS[ATNO][  3].d[  2] =         0.009331273357;
  BAS[ATNO][  3].a[  3] =      1159.444725000000;     BAS[ATNO][  3].d[  3] =         0.029915167118;
  BAS[ATNO][  3].a[  4] =       378.138103500000;     BAS[ATNO][  3].d[  4] =         0.055439548190;
  BAS[ATNO][  3].a[  5] =       130.676100500000;     BAS[ATNO][  3].d[  5] =         0.038890896137;
  BAS[ATNO][  3].a[  6] =       250.963733500000;     BAS[ATNO][  3].d[  6] =         0.073566737786;
  BAS[ATNO][  3].a[  7] =        30.265930380000;     BAS[ATNO][  3].d[  7] =        -0.085602751332;
  BAS[ATNO][  3].a[  8] =        12.668110760000;     BAS[ATNO][  3].d[  8] =         2.366485090667;
  BAS[ATNO][  3].a[  9] =        22.697940100000;     BAS[ATNO][  3].d[  9] =        -1.883875758582;
  BAS[ATNO][  3].a[ 10] =         3.867301740000;     BAS[ATNO][  3].d[ 10] =         0.533242929260;
  BAS[ATNO][  3].a[ 11] =         1.801370667000;     BAS[ATNO][  3].d[ 11] =        -1.685641508559;
  BAS[ATNO][  3].a[ 12] =         0.403086391400;     BAS[ATNO][  3].d[ 12] =         0.158170551526;
  BAS[ATNO][  3].a[ 13] =         0.151705277500;     BAS[ATNO][  3].d[ 13] =        -0.056440547404;

  // Basis function   5 L = s
  InitBFNGauss(BAS[ATNO][  4]);
  BAS[ATNO][  4].l  = 0;
  BAS[ATNO][  4].ng = 14;
  BAS[ATNO][  4].a[  0] =    120165.648799999995;     BAS[ATNO][  4].d[  0] =         0.000312229380;
  BAS[ATNO][  4].a[  1] =     18042.500169999999;     BAS[ATNO][  4].d[  1] =         0.001763897334;
  BAS[ATNO][  4].a[  2] =      4105.180039000000;     BAS[ATNO][  4].d[  2] =         0.007636179718;
  BAS[ATNO][  4].a[  3] =      1159.444725000000;     BAS[ATNO][  4].d[  3] =         0.024480859543;
  BAS[ATNO][  4].a[  4] =       378.138103500000;     BAS[ATNO][  4].d[  4] =         0.045368551245;
  BAS[ATNO][  4].a[  5] =       130.676100500000;     BAS[ATNO][  4].d[  5] =         0.031826082138;
  BAS[ATNO][  4].a[  6] =       250.963733500000;     BAS[ATNO][  4].d[  6] =         0.056757675977;
  BAS[ATNO][  4].a[  7] =        30.265930380000;     BAS[ATNO][  4].d[  7] =         0.588081891483;
  BAS[ATNO][  4].a[  8] =        12.668110760000;     BAS[ATNO][  4].d[  8] =         4.070751609666;
  BAS[ATNO][  4].a[  9] =        22.697940100000;     BAS[ATNO][  4].d[  9] =        -3.267109034417;
  BAS[ATNO][  4].a[ 10] =         3.867301740000;     BAS[ATNO][  4].d[ 10] =        -2.550518878258;
  BAS[ATNO][  4].a[ 11] =         1.801370667000;     BAS[ATNO][  4].d[ 11] =         0.506682363006;
  BAS[ATNO][  4].a[ 12] =         0.403086391400;     BAS[ATNO][  4].d[ 12] =         1.276479079206;
  BAS[ATNO][  4].a[ 13] =         0.151705277500;     BAS[ATNO][  4].d[ 13] =        -0.349160147453;

  // Basis function   6 L = s
  InitBFNGauss(BAS[ATNO][  5]);
  BAS[ATNO][  5].l  = 0;
  BAS[ATNO][  5].ng = 14;
  BAS[ATNO][  5].a[  0] =    120165.648799999995;     BAS[ATNO][  5].d[  0] =        -0.000324106551;
  BAS[ATNO][  5].a[  1] =     18042.500169999999;     BAS[ATNO][  5].d[  1] =        -0.001830995790;
  BAS[ATNO][  5].a[  2] =      4105.180039000000;     BAS[ATNO][  5].d[  2] =        -0.007926659137;
  BAS[ATNO][  5].a[  3] =      1159.444725000000;     BAS[ATNO][  5].d[  3] =        -0.025412108693;
  BAS[ATNO][  5].a[  4] =       378.138103500000;     BAS[ATNO][  5].d[  4] =        -0.047094365843;
  BAS[ATNO][  5].a[  5] =       130.676100500000;     BAS[ATNO][  5].d[  5] =        -0.033036742730;
  BAS[ATNO][  5].a[  6] =       250.963733500000;     BAS[ATNO][  5].d[  6] =        -0.058550890642;
  BAS[ATNO][  5].a[  7] =        30.265930380000;     BAS[ATNO][  5].d[  7] =        -0.822120537506;
  BAS[ATNO][  5].a[  8] =        12.668110760000;     BAS[ATNO][  5].d[  8] =        -5.344519307233;
  BAS[ATNO][  5].a[  9] =        22.697940100000;     BAS[ATNO][  5].d[  9] =         4.079414166457;
  BAS[ATNO][  5].a[ 10] =         3.867301740000;     BAS[ATNO][  5].d[ 10] =         5.424119504792;
  BAS[ATNO][  5].a[ 11] =         1.801370667000;     BAS[ATNO][  5].d[ 11] =        -4.296183650052;
  BAS[ATNO][  5].a[ 12] =         0.403086391400;     BAS[ATNO][  5].d[ 12] =         1.434693277652;
  BAS[ATNO][  5].a[ 13] =         0.151705277500;     BAS[ATNO][  5].d[ 13] =         0.031322712620;

  // Basis function   7 L = s
  InitBFNGauss(BAS[ATNO][  6]);
  BAS[ATNO][  6].l  = 0;
  BAS[ATNO][  6].ng = 14;
  BAS[ATNO][  6].a[  0] =    120165.648799999995;     BAS[ATNO][  6].d[  0] =         0.000128061493;
  BAS[ATNO][  6].a[  1] =     18042.500169999999;     BAS[ATNO][  6].d[  1] =         0.000723465953;
  BAS[ATNO][  6].a[  2] =      4105.180039000000;     BAS[ATNO][  6].d[  2] =         0.003131994095;
  BAS[ATNO][  6].a[  3] =      1159.444725000000;     BAS[ATNO][  6].d[  3] =         0.010040872579;
  BAS[ATNO][  6].a[  4] =       378.138103500000;     BAS[ATNO][  6].d[  4] =         0.018608000318;
  BAS[ATNO][  6].a[  5] =       130.676100500000;     BAS[ATNO][  6].d[  5] =         0.013053530039;
  BAS[ATNO][  6].a[  6] =       250.963733500000;     BAS[ATNO][  6].d[  6] =         0.024078478953;
  BAS[ATNO][  6].a[  7] =        30.265930380000;     BAS[ATNO][  6].d[  7] =         0.251073700607;
  BAS[ATNO][  6].a[  8] =        12.668110760000;     BAS[ATNO][  6].d[  8] =         2.186552392128;
  BAS[ATNO][  6].a[  9] =        22.697940100000;     BAS[ATNO][  6].d[  9] =        -1.529156175606;
  BAS[ATNO][  6].a[ 10] =         3.867301740000;     BAS[ATNO][  6].d[ 10] =        -2.677804760732;
  BAS[ATNO][  6].a[ 11] =         1.801370667000;     BAS[ATNO][  6].d[ 11] =         2.687431104392;
  BAS[ATNO][  6].a[ 12] =         0.403086391400;     BAS[ATNO][  6].d[ 12] =        -2.686488041409;
  BAS[ATNO][  6].a[ 13] =         0.151705277500;     BAS[ATNO][  6].d[ 13] =         2.226164710185;

  // Basis function   8 L = s
  InitBFNGauss(BAS[ATNO][  7]);
  BAS[ATNO][  7].l  = 0;
  BAS[ATNO][  7].ng = 14;
  BAS[ATNO][  7].a[  0] =    120165.648799999995;     BAS[ATNO][  7].d[  0] =         0.001051497852;
  BAS[ATNO][  7].a[  1] =     18042.500169999999;     BAS[ATNO][  7].d[  1] =         0.005940293817;
  BAS[ATNO][  7].a[  2] =      4105.180039000000;     BAS[ATNO][  7].d[  2] =         0.025716435021;
  BAS[ATNO][  7].a[  3] =      1159.444725000000;     BAS[ATNO][  7].d[  3] =         0.082444423385;
  BAS[ATNO][  7].a[  4] =       378.138103500000;     BAS[ATNO][  7].d[  4] =         0.152788101275;
  BAS[ATNO][  7].a[  5] =       130.676100500000;     BAS[ATNO][  7].d[  5] =         0.107180999335;
  BAS[ATNO][  7].a[  6] =       250.963733500000;     BAS[ATNO][  7].d[  6] =         0.350988776376;
  BAS[ATNO][  7].a[  7] =        30.265930380000;     BAS[ATNO][  7].d[  7] =       -20.496656149331;
  BAS[ATNO][  7].a[  8] =        12.668110760000;     BAS[ATNO][  7].d[  8] =       -14.042931433666;
  BAS[ATNO][  7].a[  9] =        22.697940100000;     BAS[ATNO][  7].d[  9] =        31.269779348172;
  BAS[ATNO][  7].a[ 10] =         3.867301740000;     BAS[ATNO][  7].d[ 10] =         4.478376105554;
  BAS[ATNO][  7].a[ 11] =         1.801370667000;     BAS[ATNO][  7].d[ 11] =        -2.240289887164;
  BAS[ATNO][  7].a[ 12] =         0.403086391400;     BAS[ATNO][  7].d[ 12] =         0.609148502055;
  BAS[ATNO][  7].a[ 13] =         0.151705277500;     BAS[ATNO][  7].d[ 13] =        -0.246875536497;

  // Basis function   9 L = s
  InitBFNGauss(BAS[ATNO][  8]);
  BAS[ATNO][  8].l  = 0;
  BAS[ATNO][  8].ng = 14;
  BAS[ATNO][  8].a[  0] =    120165.648799999995;     BAS[ATNO][  8].d[  0] =        -0.010643742597;
  BAS[ATNO][  8].a[  1] =     18042.500169999999;     BAS[ATNO][  8].d[  1] =        -0.060130373272;
  BAS[ATNO][  8].a[  2] =      4105.180039000000;     BAS[ATNO][  8].d[  2] =        -0.260313527339;
  BAS[ATNO][  8].a[  3] =      1159.444725000000;     BAS[ATNO][  8].d[  3] =        -0.834540193573;
  BAS[ATNO][  8].a[  4] =       378.138103500000;     BAS[ATNO][  8].d[  4] =        -1.546591101964;
  BAS[ATNO][  8].a[  5] =       130.676100500000;     BAS[ATNO][  8].d[  5] =        -1.084935138852;
  BAS[ATNO][  8].a[  6] =       250.963733500000;     BAS[ATNO][  8].d[  6] =         3.721199538356;
  BAS[ATNO][  8].a[  7] =        30.265930380000;     BAS[ATNO][  8].d[  7] =        -5.508783687016;
  BAS[ATNO][  8].a[  8] =        12.668110760000;     BAS[ATNO][  8].d[  8] =        -2.846335619406;
  BAS[ATNO][  8].a[  9] =        22.697940100000;     BAS[ATNO][  8].d[  9] =         7.540782235722;
  BAS[ATNO][  8].a[ 10] =         3.867301740000;     BAS[ATNO][  8].d[ 10] =         0.773221043483;
  BAS[ATNO][  8].a[ 11] =         1.801370667000;     BAS[ATNO][  8].d[ 11] =        -0.373528260857;
  BAS[ATNO][  8].a[ 12] =         0.403086391400;     BAS[ATNO][  8].d[ 12] =         0.096744476222;
  BAS[ATNO][  8].a[ 13] =         0.151705277500;     BAS[ATNO][  8].d[ 13] =        -0.038143717779;

  // Basis function  10 L = p
  InitBFNGauss(BAS[ATNO][  9]);
  BAS[ATNO][  9].l  = 1;
  BAS[ATNO][  9].ng = 10;
  BAS[ATNO][  9].a[  0] =      1668.573662000000;     BAS[ATNO][  9].d[  0] =         0.010941842372;
  BAS[ATNO][  9].a[  1] =       394.138628000000;     BAS[ATNO][  9].d[  1] =         0.073021390545;
  BAS[ATNO][  9].a[  2] =       125.466448500000;     BAS[ATNO][  9].d[  2] =         0.276523403293;
  BAS[ATNO][  9].a[  3] =        45.704992730000;     BAS[ATNO][  9].d[  3] =         0.544982645337;
  BAS[ATNO][  9].a[  4] =        17.270133230000;     BAS[ATNO][  9].d[  4] =         0.369633953039;
  BAS[ATNO][  9].a[  5] =         9.269948777000;     BAS[ATNO][  9].d[  5] =        -0.190279415316;
  BAS[ATNO][  9].a[  6] =         3.836461772000;     BAS[ATNO][  9].d[  6] =         0.114455432859;
  BAS[ATNO][  9].a[  7] =         1.646716331000;     BAS[ATNO][  9].d[  7] =        -0.059429172919;
  BAS[ATNO][  9].a[  8] =         0.614796864900;     BAS[ATNO][  9].d[  8] =         0.021587762561;
  BAS[ATNO][  9].a[  9] =         0.183194674100;     BAS[ATNO][  9].d[  9] =        -0.005440491078;

  // Basis function  11 L = p
  InitBFNGauss(BAS[ATNO][ 10]);
  BAS[ATNO][ 10].l  = 1;
  BAS[ATNO][ 10].ng = 10;
  BAS[ATNO][ 10].a[  0] =      1668.573662000000;     BAS[ATNO][ 10].d[  0] =        -0.006545962952;
  BAS[ATNO][ 10].a[  1] =       394.138628000000;     BAS[ATNO][ 10].d[  1] =        -0.043685085284;
  BAS[ATNO][ 10].a[  2] =       125.466448500000;     BAS[ATNO][ 10].d[  2] =        -0.165430271399;
  BAS[ATNO][ 10].a[  3] =        45.704992730000;     BAS[ATNO][ 10].d[  3] =        -0.326036154092;
  BAS[ATNO][ 10].a[  4] =        17.270133230000;     BAS[ATNO][ 10].d[  4] =        -0.221133706737;
  BAS[ATNO][ 10].a[  5] =         9.269948777000;     BAS[ATNO][ 10].d[  5] =         1.227593192120;
  BAS[ATNO][ 10].a[  6] =         3.836461772000;     BAS[ATNO][ 10].d[  6] =        -0.034262296362;
  BAS[ATNO][ 10].a[  7] =         1.646716331000;     BAS[ATNO][ 10].d[  7] =         0.097117571932;
  BAS[ATNO][ 10].a[  8] =         0.614796864900;     BAS[ATNO][ 10].d[  8] =        -0.037504248848;
  BAS[ATNO][ 10].a[  9] =         0.183194674100;     BAS[ATNO][ 10].d[  9] =         0.009448735584;

  // Basis function  12 L = p
  InitBFNGauss(BAS[ATNO][ 11]);
  BAS[ATNO][ 11].l  = 1;
  BAS[ATNO][ 11].ng = 10;
  BAS[ATNO][ 11].a[  0] =      1668.573662000000;     BAS[ATNO][ 11].d[  0] =        -0.004176735687;
  BAS[ATNO][ 11].a[  1] =       394.138628000000;     BAS[ATNO][ 11].d[  1] =        -0.027873829419;
  BAS[ATNO][ 11].a[  2] =       125.466448500000;     BAS[ATNO][ 11].d[  2] =        -0.105554908176;
  BAS[ATNO][ 11].a[  3] =        45.704992730000;     BAS[ATNO][ 11].d[  3] =        -0.208031553211;
  BAS[ATNO][ 11].a[  4] =        17.270133230000;     BAS[ATNO][ 11].d[  4] =        -0.141097200118;
  BAS[ATNO][ 11].a[  5] =         9.269948777000;     BAS[ATNO][ 11].d[  5] =         1.488281917572;
  BAS[ATNO][ 11].a[  6] =         3.836461772000;     BAS[ATNO][ 11].d[  6] =        -1.351764229598;
  BAS[ATNO][ 11].a[  7] =         1.646716331000;     BAS[ATNO][ 11].d[  7] =        -0.290960177163;
  BAS[ATNO][ 11].a[  8] =         0.614796864900;     BAS[ATNO][ 11].d[  8] =         0.009499609691;
  BAS[ATNO][ 11].a[  9] =         0.183194674100;     BAS[ATNO][ 11].d[  9] =        -0.000310973259;

  // Basis function  13 L = p
  InitBFNGauss(BAS[ATNO][ 12]);
  BAS[ATNO][ 12].l  = 1;
  BAS[ATNO][ 12].ng = 10;
  BAS[ATNO][ 12].a[  0] =      1668.573662000000;     BAS[ATNO][ 12].d[  0] =         0.002973813423;
  BAS[ATNO][ 12].a[  1] =       394.138628000000;     BAS[ATNO][ 12].d[  1] =         0.019846017151;
  BAS[ATNO][ 12].a[  2] =       125.466448500000;     BAS[ATNO][ 12].d[  2] =         0.075154528880;
  BAS[ATNO][ 12].a[  3] =        45.704992730000;     BAS[ATNO][ 12].d[  3] =         0.148117350901;
  BAS[ATNO][ 12].a[  4] =        17.270133230000;     BAS[ATNO][ 12].d[  4] =         0.100460450246;
  BAS[ATNO][ 12].a[  5] =         9.269948777000;     BAS[ATNO][ 12].d[  5] =        -1.441701891812;
  BAS[ATNO][ 12].a[  6] =         3.836461772000;     BAS[ATNO][ 12].d[  6] =         2.567391615842;
  BAS[ATNO][ 12].a[  7] =         1.646716331000;     BAS[ATNO][ 12].d[  7] =        -1.644206620810;
  BAS[ATNO][ 12].a[  8] =         0.614796864900;     BAS[ATNO][ 12].d[  8] =        -0.286416991325;
  BAS[ATNO][ 12].a[  9] =         0.183194674100;     BAS[ATNO][ 12].d[  9] =         0.034566068840;

  // Basis function  14 L = p
  InitBFNGauss(BAS[ATNO][ 13]);
  BAS[ATNO][ 13].l  = 1;
  BAS[ATNO][ 13].ng = 10;
  BAS[ATNO][ 13].a[  0] =      1668.573662000000;     BAS[ATNO][ 13].d[  0] =        -0.001942518542;
  BAS[ATNO][ 13].a[  1] =       394.138628000000;     BAS[ATNO][ 13].d[  1] =        -0.012963575990;
  BAS[ATNO][ 13].a[  2] =       125.466448500000;     BAS[ATNO][ 13].d[  2] =        -0.049091535025;
  BAS[ATNO][ 13].a[  3] =        45.704992730000;     BAS[ATNO][ 13].d[  3] =        -0.096751429728;
  BAS[ATNO][ 13].a[  4] =        17.270133230000;     BAS[ATNO][ 13].d[  4] =        -0.065621563803;
  BAS[ATNO][ 13].a[  5] =         9.269948777000;     BAS[ATNO][ 13].d[  5] =         1.084317683740;
  BAS[ATNO][ 13].a[  6] =         3.836461772000;     BAS[ATNO][ 13].d[  6] =        -2.516824246114;
  BAS[ATNO][ 13].a[  7] =         1.646716331000;     BAS[ATNO][ 13].d[  7] =         3.052859769686;
  BAS[ATNO][ 13].a[  8] =         0.614796864900;     BAS[ATNO][ 13].d[  8] =        -1.944655106269;
  BAS[ATNO][ 13].a[  9] =         0.183194674100;     BAS[ATNO][ 13].d[  9] =         0.066495987980;

  // Basis function  15 L = p
  InitBFNGauss(BAS[ATNO][ 14]);
  BAS[ATNO][ 14].l  = 1;
  BAS[ATNO][ 14].ng = 10;
  BAS[ATNO][ 14].a[  0] =      1668.573662000000;     BAS[ATNO][ 14].d[  0] =         0.000694167189;
  BAS[ATNO][ 14].a[  1] =       394.138628000000;     BAS[ATNO][ 14].d[  1] =         0.004632588522;
  BAS[ATNO][ 14].a[  2] =       125.466448500000;     BAS[ATNO][ 14].d[  2] =         0.017543066965;
  BAS[ATNO][ 14].a[  3] =        45.704992730000;     BAS[ATNO][ 14].d[  3] =         0.034574531227;
  BAS[ATNO][ 14].a[  4] =        17.270133230000;     BAS[ATNO][ 14].d[  4] =         0.023450142424;
  BAS[ATNO][ 14].a[  5] =         9.269948777000;     BAS[ATNO][ 14].d[  5] =        -0.409819207768;
  BAS[ATNO][ 14].a[  6] =         3.836461772000;     BAS[ATNO][ 14].d[  6] =         1.056416195625;
  BAS[ATNO][ 14].a[  7] =         1.646716331000;     BAS[ATNO][ 14].d[  7] =        -1.594852448226;
  BAS[ATNO][ 14].a[  8] =         0.614796864900;     BAS[ATNO][ 14].d[  8] =         1.782351842130;
  BAS[ATNO][ 14].a[  9] =         0.183194674100;     BAS[ATNO][ 14].d[  9] =        -1.510318906307;

  // Basis function  16 L = d
  InitBFNGauss(BAS[ATNO][ 15]);
  BAS[ATNO][ 15].l  = 2;
  BAS[ATNO][ 15].ng = 6;
  BAS[ATNO][ 15].a[  0] =       115.558686000000;     BAS[ATNO][ 15].d[  0] =         0.028730697165;
  BAS[ATNO][ 15].a[  1] =        33.477985860000;     BAS[ATNO][ 15].d[  1] =         0.169419732150;
  BAS[ATNO][ 15].a[  2] =        11.834450210000;     BAS[ATNO][ 15].d[  2] =         0.464403182485;
  BAS[ATNO][ 15].a[  3] =         4.340825489000;     BAS[ATNO][ 15].d[  3] =         0.631122391288;
  BAS[ATNO][ 15].a[  4] =         1.507927316000;     BAS[ATNO][ 15].d[  4] =        -0.246381838482;
  BAS[ATNO][ 15].a[  5] =         0.443000000000;     BAS[ATNO][ 15].d[  5] =         0.071769448070;

  // Basis function  17 L = d
  InitBFNGauss(BAS[ATNO][ 16]);
  BAS[ATNO][ 16].l  = 2;
  BAS[ATNO][ 16].ng = 6;
  BAS[ATNO][ 16].a[  0] =       115.558686000000;     BAS[ATNO][ 16].d[  0] =        -0.009090535937;
  BAS[ATNO][ 16].a[  1] =        33.477985860000;     BAS[ATNO][ 16].d[  1] =        -0.053605248583;
  BAS[ATNO][ 16].a[  2] =        11.834450210000;     BAS[ATNO][ 16].d[  2] =        -0.146939484108;
  BAS[ATNO][ 16].a[  3] =         4.340825489000;     BAS[ATNO][ 16].d[  3] =        -0.199690273629;
  BAS[ATNO][ 16].a[  4] =         1.507927316000;     BAS[ATNO][ 16].d[  4] =         1.198079053236;
  BAS[ATNO][ 16].a[  5] =         0.443000000000;     BAS[ATNO][ 16].d[  5] =        -0.168456083682;

  // Basis function  18 L = d
  InitBFNGauss(BAS[ATNO][ 17]);
  BAS[ATNO][ 17].l  = 2;
  BAS[ATNO][ 17].ng = 6;
  BAS[ATNO][ 17].a[  0] =       115.558686000000;     BAS[ATNO][ 17].d[  0] =         0.002932887877;
  BAS[ATNO][ 17].a[  1] =        33.477985860000;     BAS[ATNO][ 17].d[  1] =         0.017294710101;
  BAS[ATNO][ 17].a[  2] =        11.834450210000;     BAS[ATNO][ 17].d[  2] =         0.047407219391;
  BAS[ATNO][ 17].a[  3] =         4.340825489000;     BAS[ATNO][ 17].d[  3] =         0.064426254589;
  BAS[ATNO][ 17].a[  4] =         1.507927316000;     BAS[ATNO][ 17].d[  4] =        -0.577957562285;
  BAS[ATNO][ 17].a[  5] =         0.443000000000;     BAS[ATNO][ 17].d[  5] =         1.195718924679;

-------
TIMINGS
-------

Total SCF time: 0 days 0 hours 0 min 2 sec 

Total time                  ....       2.124 sec
Sum of individual times     ....       1.956 sec  ( 92.1%)

Fock matrix formation       ....       1.238 sec  ( 58.3%)
  XC integration            ....       0.034 sec  (  2.8% of F)
    Basis function eval.    ....       0.005 sec  ( 14.9% of XC)
    Density eval.           ....       0.002 sec  (  6.0% of XC)
    XC-Functional eval.     ....       0.003 sec  (  9.3% of XC)
    XC-Potential eval.      ....       0.002 sec  (  5.8% of XC)
Diagonalization             ....       0.002 sec  (  0.1%)
Density matrix formation    ....       0.001 sec  (  0.0%)
Population analysis         ....       0.001 sec  (  0.0%)
Initial guess               ....       0.070 sec  (  3.3%)
Orbital Transformation      ....       0.000 sec  (  0.0%)
Orbital Orthonormalization  ....       0.000 sec  (  0.0%)
DIIS solution               ....       0.000 sec  (  0.0%)
SOSCF solution              ....       0.001 sec  (  0.0%)
Grid generation             ....       0.643 sec  ( 30.3%)

-------------------------   --------------------
FINAL SINGLE POINT ENERGY     -1272.293339175574
-------------------------   --------------------


                            ***************************************
                            *     ORCA property calculations      *
                            ***************************************

                                    ---------------------
                                    Active property flags
                                    ---------------------
   (+) Dipole Moment


------------------------------------------------------------------------------
                       ORCA ELECTRIC PROPERTIES CALCULATION
------------------------------------------------------------------------------

Dipole Moment Calculation                       ... on
Quadrupole Moment Calculation                   ... off
Polarizability Calculation                      ... off
GBWName                                         ... Kr_zora-def2-svp_548.143956_.gbw
Electron density file                           ... Kr_zora-def2-svp_548.143956_.scfp
The origin for moment calculation is the CENTER OF MASS  = ( 0.000000,  0.000000  0.000000)

-------------
DIPOLE MOMENT
-------------
                                X             Y             Z
Electronic contribution:      0.00000      -0.00000       0.00000
Nuclear contribution   :      0.00000       0.00000       0.00000
                        -----------------------------------------
Total Dipole Moment    :      0.00000      -0.00000       0.00000
                        -----------------------------------------
Magnitude (a.u.)       :      0.00000
Magnitude (Debye)      :      0.00000



--------------------
Rotational spectrum 
--------------------
 
Rotational constants in cm-1:     0.000000     0.000000     0.000000 
Rotational constants in MHz :     0.000000     0.000000     0.000000 

 Dipole components along the rotational axes: 
x,y,z [a.u.] :     0.000000    -0.000000     0.000000 
x,y,z [Debye]:     0.000000    -0.000000     0.000000 

 

Timings for individual modules:

Sum of individual times         ...        3.315 sec (=   0.055 min)
GTO integral calculation        ...        0.495 sec (=   0.008 min)  14.9 %
Relativistic integrals          ...        0.433 sec (=   0.007 min)  13.1 %
SCF iterations                  ...        2.386 sec (=   0.040 min)  72.0 %
                             ****ORCA TERMINATED NORMALLY****
TOTAL RUN TIME: 0 days 0 hours 0 minutes 3 seconds 636 msec
