
                                 *****************
                                 * O   R   C   A *
                                 *****************

           --- An Ab Initio, DFT and Semiempirical electronic structure package ---

                  #######################################################
                  #                        -***-                        #
                  #          Department of theory and spectroscopy      #
                  #               Directorship: Frank Neese             #
                  #        Max Planck Institute fuer Kohlenforschung    #
                  #                Kaiser Wilhelm Platz 1               #
                  #                 D-45470 Muelheim/Ruhr               #
                  #                      Germany                        #
                  #                                                     #
                  #                  All rights reserved                #
                  #                        -***-                        #
                  #######################################################


                         Program Version 4.2.1 -  RELEASE  -


 With contributions from (in alphabetic order):
   Daniel Aravena         : Magnetic Suceptibility
   Michael Atanasov       : Ab Initio Ligand Field Theory (pilot matlab implementation)
   Alexander A. Auer      : GIAO ZORA, VPT2
   Ute Becker             : Parallelization
   Giovanni Bistoni       : ED, misc. LED, open-shell LED, HFLD
   Martin Brehm           : Molecular dynamics
   Dmytro Bykov           : SCF Hessian
   Vijay G. Chilkuri      : MRCI spin determinant printing, contributions to CSF-ICE
   Dipayan Datta          : RHF DLPNO-CCSD density
   Achintya Kumar Dutta   : EOM-CC, STEOM-CC
   Dmitry Ganyushin       : Spin-Orbit,Spin-Spin,Magnetic field MRCI
   Miquel Garcia          : C-PCM Hessian, Gaussian charge scheme
   Yang Guo               : DLPNO-NEVPT2, CIM, IAO-localization
   Andreas Hansen         : Spin unrestricted coupled pair/coupled cluster methods
   Benjamin Helmich-Paris : CASSCF linear response (MC-RPA)
   Lee Huntington         : MR-EOM, pCC
   Robert Izsak           : Overlap fitted RIJCOSX, COSX-SCS-MP3, EOM
   Christian Kollmar      : KDIIS, OOCD, Brueckner-CCSD(T), CCSD density
   Simone Kossmann        : Meta GGA functionals, TD-DFT gradient, OOMP2, MP2 Hessian
   Martin Krupicka        : AUTO-CI
   Lucas Lang             : DCDCAS
   Dagmar Lenk            : GEPOL surface, SMD
   Dimitrios Liakos       : Extrapolation schemes; Compound Job, initial MDCI parallelization
   Dimitrios Manganas     : Further ROCIS development; embedding schemes
   Dimitrios Pantazis     : SARC Basis sets
   Taras Petrenko         : DFT Hessian,TD-DFT gradient, ASA, ECA, R-Raman, ABS, FL, XAS/XES, NRVS
   Peter Pinski           : DLPNO-MP2, DLPNO-MP2 Gradient
   Christoph Reimann      : Effective Core Potentials
   Marius Retegan         : Local ZFS, SOC
   Christoph Riplinger    : Optimizer, TS searches, QM/MM, DLPNO-CCSD(T), (RO)-DLPNO pert. Triples
   Tobias Risthaus        : Range-separated hybrids, TD-DFT gradient, RPA, STAB
   Michael Roemelt        : Original ROCIS implementation
   Masaaki Saitow         : Open-shell DLPNO-CCSD energy and density
   Barbara Sandhoefer     : DKH picture change effects
   Avijit Sen             : IP-ROCIS
   Kantharuban Sivalingam : CASSCF convergence, NEVPT2, FIC-MRCI
   Bernardo de Souza      : ESD, SOC TD-DFT
   Georgi Stoychev        : AutoAux, RI-MP2 NMR
   Willem Van den Heuvel  : Paramagnetic NMR
   Boris Wezisla          : Elementary symmetry handling
   Frank Wennmohs         : Technical directorship


 We gratefully acknowledge several colleagues who have allowed us to
 interface, adapt or use parts of their codes:
   Stefan Grimme, W. Hujo, H. Kruse,             : VdW corrections, initial TS optimization,
                  C. Bannwarth                     DFT functionals, gCP, sTDA/sTD-DF
   Ed Valeev, F. Pavosevic, A. Kumar             : LibInt (2-el integral package), F12 methods
   Garnet Chan, S. Sharma, J. Yang, R. Olivares  : DMRG
   Ulf Ekstrom                                   : XCFun DFT Library
   Mihaly Kallay                                 : mrcc  (arbitrary order and MRCC methods)
   Andreas Klamt, Michael Diedenhofen            : otool_cosmo (COSMO solvation model)
   Jiri Pittner, Ondrej Demel                    : Mk-CCSD
   Frank Weinhold                                : gennbo (NPA and NBO analysis)
   Christopher J. Cramer and Donald G. Truhlar   : smd solvation model
   Lars Goerigk                                  : TD-DFT with DH, B97 family of functionals
   V. Asgeirsson, H. Jonsson                     : NEB implementation
   FAccTs GmbH                                   : IRC, NEB, NEB-TS, Multilevel, MM, QM/MM, CI optimization
   S Lehtola, MJT Oliveira, MAL Marques          : LibXC Library


 Your calculation uses the libint2 library for the computation of 2-el integrals
 For citations please refer to: http://libint.valeyev.net

 Your ORCA version has been built with support for libXC version: 4.2.3
 For citations please refer to: https://tddft.org/programs/libxc/

 This ORCA versions uses:
   CBLAS   interface :  Fast vector & matrix operations
   LAPACKE interface :  Fast linear algebra routines
   SCALAPACK package :  Parallel linear algebra routines


----- Orbital basis set information -----
Your calculation utilizes the basis: ZORA-def2-TZVP 
   Exponents from def2-TZVP [F. Weigend and R. Ahlrichs, Phys. Chem. Chem. Phys. 7, 3297 (2005)],
   recontracted for ZORA by D. A. Pantazis.

================================================================================
                                        WARNINGS
                       Please study these warnings very carefully!
================================================================================


INFO   : the flag for use of LIBINT has been found!

================================================================================
                                       INPUT FILE
================================================================================
NAME = Kr_zora-def2-tzvp_137.035989_.inp
|  1> ! LDA zora-def2-tzvp nori grid5 finalgrid6 verytightscf
|  2> %Pal NProcs 18 End
|  3> 
|  4> % REL
|  5>   Method ZORA
|  6>   ModelPot 1, 0, 0, 0
|  7>   velit 137.035989
|  8> END
|  9> 
| 10> *xyz 34 1
| 11> Kr 0.0 0.0 0.0
| 12> **                         ****END OF INPUT****
================================================================================

                       ****************************
                       * Single Point Calculation *
                       ****************************

---------------------------------
CARTESIAN COORDINATES (ANGSTROEM)
---------------------------------
  Kr     0.000000    0.000000    0.000000

----------------------------
CARTESIAN COORDINATES (A.U.)
----------------------------
  NO LB      ZA    FRAG     MASS         X           Y           Z
   0 Kr   36.0000    0    83.800    0.000000    0.000000    0.000000

--------------------------------
INTERNAL COORDINATES (ANGSTROEM)
--------------------------------
 Kr     0   0   0     0.000000000000     0.00000000     0.00000000

---------------------------
INTERNAL COORDINATES (A.U.)
---------------------------
 Kr     0   0   0     0.000000000000     0.00000000     0.00000000

---------------------
BASIS SET INFORMATION
---------------------
There are 1 groups of distinct atoms

 Group   1 Type Kr  : 17s13p8d1f contracted to 10s8p4d1f pattern {8111111111/61111111/5111/1}

Atom   0Kr   basis set group =>   1


           ************************************************************
           *        Program running with 18 parallel MPI-processes    *
           *              working on a common directory               *
           ************************************************************
------------------------------------------------------------------------------
                           ORCA GTO INTEGRAL CALCULATION
------------------------------------------------------------------------------

                         BASIS SET STATISTICS AND STARTUP INFO

 # of primitive gaussian shells          ...   39
 # of primitive gaussian functions       ...  103
 # of contracted shells                  ...   23
 # of contracted basis functions         ...   61
 Highest angular momentum                ...    3
 Maximum contraction depth               ...    8
 Integral package used                   ... LIBINT
 Integral threshhold            Thresh   ...  1.000e-12
 Primitive cut-off              TCut     ...  1.000e-14


------------------------------ INTEGRAL EVALUATION ----------------------------


 * One electron integrals 
 Pre-screening matrix                    ... done
 Shell pair data                         ... done (   0.000 sec)



           ************************************************************
           *        Program running with 18 parallel MPI-processes    *
           *              working on a common directory               *
           ************************************************************
------------------------------------------------------------------------------
                          ORCA RELATIVISTIC HAMILTONIAN
------------------------------------------------------------------------------

Relativistic Method            ... ZORA(MP)
Treatment of potential         ... Van Wuellen
Nucleus model                  ... Point Nucleus
Speed of light used            ... 137.03598900000000


            *************************************************
            *         ZERO ORDER REGULAR APPROXIMATION      *
            *                     ZORA(MP)                  *
            *            Programmed by FN according to      *
            *                   C. van Wuellen              *
            *       J. Chem. Phys. (1998) vol 109, 392-399  *
            *************************************************

Terms included in model potential: +V(e,N)
Basis function cutoff value   ... 1.000000e-12
Loading the fitted atomic densities  (DKH4)  ... done
Calculating the cutoffs                      ... done
Number of fit functions                      ... 27
Setting up the integration grid ... done


           ************************************************************
           *        Program running with 18 parallel MPI-processes    *
           *              working on a common directory               *
           ************************************************************
-------------------------------------------------------------------------------
                                 ORCA SCF
-------------------------------------------------------------------------------

------------
SCF SETTINGS
------------
Hamiltonian:
 Density Functional     Method          .... DFT(GTOs)
 Exchange Functional    Exchange        .... Slater
   X-Alpha parameter    XAlpha          ....  0.666667
 Correlation Functional Correlation     .... VWN-5
 Gradients option       PostSCFGGA      .... off
   Density functional embedding theory  .... OFF

Relativistic Settings:
 Scalar relativistic method             .... ZORA
 Speed of light used       Velit        ....       137.035989
Orbital energies will be scaled


General Settings:
 Integral files         IntName         .... Kr_zora-def2-tzvp_137.035989_
 Hartree-Fock type      HFTyp           .... RHF
 Total Charge           Charge          ....   34
 Multiplicity           Mult            ....    1
 Number of Electrons    NEL             ....    2
 Basis Dimension        Dim             ....   61
 Nuclear Repulsion      ENuc            ....      0.0000000000 Eh

Convergence Acceleration:
 DIIS                   CNVDIIS         .... on
   Start iteration      DIISMaxIt       ....    12
   Startup error        DIISStart       ....  0.200000
   # of expansion vecs  DIISMaxEq       ....     5
   Bias factor          DIISBfac        ....   1.050
   Max. coefficient     DIISMaxC        ....  10.000
 Newton-Raphson         CNVNR           .... off
 SOSCF                  CNVSOSCF        .... on
   Start iteration      SOSCFMaxIt      ....   150
   Startup grad/error   SOSCFStart      ....  0.003300
 Level Shifting         CNVShift        .... on
   Level shift para.    LevelShift      ....    0.2500
   Turn off err/grad.   ShiftErr        ....    0.0010
 Zerner damping         CNVZerner       .... off
 Static damping         CNVDamp         .... on
   Fraction old density DampFac         ....    0.7000
   Max. Damping (<1)    DampMax         ....    0.9800
   Min. Damping (>=0)   DampMin         ....    0.0000
   Turn off err/grad.   DampErr         ....    0.1000
 Fernandez-Rico         CNVRico         .... off

SCF Procedure:
 Maximum # iterations   MaxIter         ....   125
 SCF integral mode      SCFMode         .... Direct
   Integral package                     .... LIBINT
 Reset frequency        DirectResetFreq ....    20
 Integral Threshold     Thresh          ....  1.000e-12 Eh
 Primitive CutOff       TCut            ....  1.000e-14 Eh

Convergence Tolerance:
 Convergence Check Mode ConvCheckMode   .... Total+1el-Energy
 Convergence forced     ConvForced      .... 0
 Energy Change          TolE            ....  1.000e-09 Eh
 1-El. energy change                    ....  1.000e-06 Eh
 Orbital Gradient       TolG            ....  2.000e-06
 Orbital Rotation angle TolX            ....  2.000e-06
 DIIS Error             TolErr          ....  1.000e-08


Diagonalization of the overlap matrix:
Smallest eigenvalue                        ... 4.300e-04
Time for diagonalization                   ...    0.002 sec
Threshold for overlap eigenvalues          ... 1.000e-08
Number of eigenvalues below threshold      ... 0
Time for construction of square roots      ...    0.001 sec
Total time needed                          ...    0.003 sec

-------------------
DFT GRID GENERATION
-------------------

General Integration Accuracy     IntAcc      ...  5.010
Radial Grid Type                 RadialGrid  ... Gauss-Chebyshev
Angular Grid (max. acc.)         AngularGrid ... Lebedev-434
Angular grid pruning method      GridPruning ... 3 (G Style)
Weight generation scheme         WeightScheme... Becke
Basis function cutoff            BFCut       ...    1.0000e-12
Integration weight cutoff        WCut        ...    1.0000e-14
Grids for H and He will be reduced by one unit

# of grid points (after initial pruning)     ...  16106 (   0.0 sec)
# of grid points (after weights+screening)   ...  16106 (   0.0 sec)
Grid point division into batches done        ...    0.2 sec
Reduced shell lists constructed in    0.2 sec

Total number of grid points                  ...    16106
Total number of batches                      ...      252
Average number of points per batch           ...       63
Average number of grid points per atom       ...    16106
Average number of shells per batch           ...     0.53 ( 2.32%)
Average number of basis functions per batch  ...     1.60 ( 2.62%)
Average number of large shells per batch     ...     0.53 (100.00%)
Average number of large basis fcns per batch ...     1.60 (100.00%)
Maximum spatial batch extension              ...  17.34, 17.34, 17.34 au
Average spatial batch extension              ...   0.86,  0.87,  0.87 au

Time for grid setup =    0.235 sec

------------------------------
INITIAL GUESS: MODEL POTENTIAL
------------------------------
Loading ZORA relativistic densities                ... done
Calculating cut-offs                               ... done
Setting up the integral package                    ... done
Initializing the effective Hamiltonian             ... done
Starting the Coulomb interaction                   ... done (   0.0 sec)
Reading the grid                                   ... done
Mapping shells                                     ... done
Starting the XC term evaluation                    ... done (   0.0 sec)
  promolecular density results
     # of electrons  =     36.000000565
     EX              =    -91.042004939
     EC              =     -3.295965580
     EX+EC           =    -94.337970520
Transforming the Hamiltonian                       ... done (   0.0 sec)
Diagonalizing the Hamiltonian                      ... done (   0.0 sec)
Back transforming the eigenvectors                 ... done (   0.0 sec)
Now organizing SCF variables                       ... done
                      ------------------
                      INITIAL GUESS DONE (   0.3 sec)
                      ------------------
--------------
SCF ITERATIONS
--------------
ITER       Energy         Delta-E        Max-DP      RMS-DP      [F,P]     Damp
               ***  Starting incremental Fock matrix formation  ***
  0  -1316.2328925376   0.000000000000 0.02284368  0.00051676  6.8136660 0.7000
  1  -1316.2521812461  -0.019288708534 0.01594718  0.00036062  4.7493907 0.7000
  2  -1316.2655996345  -0.013418388328 0.01112570  0.00025150  3.3099124 0.7000
  3  -1316.2749520367  -0.009352402260 0.00776207  0.00017541  2.3067746 0.7000
  4  -1316.2814791503  -0.006527113568 0.00541544  0.00012234  1.6076891 0.7000
  5  -1316.2860386669  -0.004559516628 0.00377830  0.00008532  1.1204848 0.7000
                      *** Initiating the SOSCF procedure ***
                      *** Re-Reading the Fockian *** 
                      *** Removing any level shift *** 
ITER      Energy       Delta-E        Grad      Rot      Max-DP    RMS-DP
  6  -1316.28922575  -0.0031870850  0.002663  0.002663  0.008787  0.000198
               *** Restarting incremental Fock matrix formation ***
  7  -1316.29664784  -0.0074220921  0.006175  0.000007  0.000067  0.000002
  8  -1316.29664799  -0.0000001481  0.000090  0.000000  0.000001  0.000000
                 **** Energy Check signals convergence ****
              ***Rediagonalizing the Fockian in SOSCF/NRSCF***

               *****************************************************
               *                     SUCCESS                       *
               *           SCF CONVERGED AFTER   9 CYCLES          *
               *****************************************************

Setting up the final grid:

General Integration Accuracy     IntAcc      ...  5.340
Radial Grid Type                 RadialGrid  ... Gauss-Chebyshev
Angular Grid (max. acc.)         AngularGrid ... Lebedev-590
Angular grid pruning method      GridPruning ... 3 (G Style)
Weight generation scheme         WeightScheme... Becke
Basis function cutoff            BFCut       ...    1.0000e-12
Integration weight cutoff        WCut        ...    1.0000e-14
Grids for H and He will be reduced by one unit

# of grid points (after initial pruning)     ...  24180 (   0.0 sec)
# of grid points (after weights+screening)   ...  24180 (   0.0 sec)
Grid point division into batches done        ...    0.4 sec
Reduced shell lists constructed in    0.4 sec

Total number of grid points                  ...    24180
Total number of batches                      ...      378
Average number of points per batch           ...       63
Average number of grid points per atom       ...    24180
Average number of shells per batch           ...     0.14 ( 0.59%)
Average number of basis functions per batch  ...     0.41 ( 0.67%)
Average number of large shells per batch     ...     0.14 (100.00%)
Average number of large basis fcns per batch ...     0.41 (100.00%)
Maximum spatial batch extension              ...  17.58, 17.58, 17.58 au
Average spatial batch extension              ...   0.77,  0.77,  0.77 au

Final grid set up in    0.4 sec
Final integration                            ... done (   0.0 sec)
Change in XC energy                          ...     0.000014544
Integrated number of electrons               ...     1.999999695
Previous integrated no of electrons          ...     2.000000099

----------------
TOTAL SCF ENERGY
----------------

Total Energy       :        -1316.29663345 Eh          -35818.25236 eV

Components:
Nuclear Repulsion  :            0.00000000 Eh               0.00000 eV
Electronic Energy  :        -1316.29663345 Eh          -35818.25236 eV
One Electron Energy:        -1342.52476500 Eh          -36531.95610 eV
Two Electron Energy:           26.22813155 Eh             713.70374 eV

Virial components:
Potential Energy   :        -2679.71089600 Eh          -72918.64059 eV
Kinetic Energy     :         1363.41426256 Eh           37100.38823 eV
Virial Ratio       :            1.96544144


DFT components:
N(Alpha)           :        0.999999847453 electrons
N(Beta)            :        0.999999847453 electrons
N(Total)           :        1.999999694906 electrons
E(X)               :      -19.954024923552 Eh       
E(C)               :       -0.280394987011 Eh       
E(XC)              :      -20.234419910563 Eh       
DFET-embed. en.    :        0.000000000000 Eh       

---------------
SCF CONVERGENCE
---------------

  Last Energy change         ...   -3.2287e-11  Tolerance :   1.0000e-09
  Last MAX-Density change    ...    3.8573e-11  Tolerance :   1.0000e-08
  Last RMS-Density change    ...    8.3740e-13  Tolerance :   1.0000e-09
  Last Orbital Gradient      ...    1.6836e-09  Tolerance :   2.0000e-06
  Last Orbital Rotation      ...    1.1103e-12  Tolerance :   2.0000e-06

================================================================================
                                        WARNING
Number of found core electrons (2) does not match given number of chemical core electrons (18)
================================================================================
             **** THE GBW FILE WAS UPDATED (Kr_zora-def2-tzvp_137.035989_.gbw) ****
             **** DENSITY FILE WAS UPDATED (Kr_zora-def2-tzvp_137.035989_.scfp) ****
             **** ENERGY FILE WAS UPDATED (Kr_zora-def2-tzvp_137.035989_.en.tmp) ****
             **** THE GBW FILE WAS UPDATED (Kr_zora-def2-tzvp_137.035989_.gbw) ****
             **** DENSITY FILE WAS UPDATED (Kr_zora-def2-tzvp_137.035989_.scfp) ****
----------------
ORBITAL ENERGIES
----------------

  NO   OCC          E(Eh)            E(eV) 
   0   2.0000    -638.252571    -17367.7354 
   1   0.0000    -152.900492     -4160.6339 
   2   0.0000    -148.918236     -4052.2712 
   3   0.0000    -148.918236     -4052.2712 
   4   0.0000    -148.918236     -4052.2712 
   5   0.0000     -66.620535     -1812.8369 
   6   0.0000     -65.030980     -1769.5829 
   7   0.0000     -65.030980     -1769.5829 
   8   0.0000     -65.030980     -1769.5829 
   9   0.0000     -58.276974     -1585.7971 
  10   0.0000     -58.276974     -1585.7971 
  11   0.0000     -58.276974     -1585.7971 
  12   0.0000     -58.276974     -1585.7971 
  13   0.0000     -58.276974     -1585.7971 
  14   0.0000     -36.911023     -1004.4000 
  15   0.0000     -36.307107      -987.9666 
  16   0.0000     -36.307107      -987.9666 
  17   0.0000     -36.307107      -987.9666 
  18   0.0000     -26.815400      -729.6841 
  19   0.0000     -26.815400      -729.6841 
  20   0.0000     -26.815400      -729.6841 
  21   0.0000     -26.815400      -729.6841 
  22   0.0000     -26.815400      -729.6841 
  23   0.0000     -23.141193      -629.7039 
  24   0.0000     -23.141193      -629.7039 
  25   0.0000     -23.141193      -629.7039 
  26   0.0000     -22.613787      -615.3524 
  27   0.0000     -16.832403      -458.0330 
  28   0.0000     -16.832403      -458.0330 
  29   0.0000     -16.832403      -458.0330 
  30   0.0000     -16.832403      -458.0330 
  31   0.0000     -16.832403      -458.0330 
  32   0.0000     -16.832403      -458.0330 
  33   0.0000     -16.832403      -458.0330 
  34   0.0000     -16.028926      -436.1693 
  35   0.0000     -16.028926      -436.1693 
  36   0.0000     -16.028926      -436.1693 
  37   0.0000     -15.965637      -434.4471 
  38   0.0000     -15.965637      -434.4471 
  39   0.0000     -15.965637      -434.4471 
  40   0.0000     -15.965637      -434.4471 
  41   0.0000     -15.965637      -434.4471 
  42   0.0000     -14.713006      -400.3612 
  43   0.0000     -11.685468      -317.9778 
  44   0.0000     -11.685468      -317.9778 
  45   0.0000     -11.685468      -317.9778 
  46   0.0000     -11.012651      -299.6695 
  47   0.0000     -10.268650      -279.4242 
  48   0.0000     -10.268650      -279.4242 
  49   0.0000     -10.268650      -279.4242 
  50   0.0000     -10.268650      -279.4242 
  51   0.0000     -10.268650      -279.4242 
  52   0.0000      -7.929008      -215.7593 
  53   0.0000      -7.929008      -215.7593 
  54   0.0000      -7.929008      -215.7593 
  55   0.0000      51.507155      1401.5810 
  56   0.0000     264.616353      7200.5770 
  57   0.0000     264.616353      7200.5770 
  58   0.0000     264.616353      7200.5770 
  59   0.0000     579.204586     15760.9580 
  60   0.0000    4300.275404    117016.4427 

                    ********************************
                    * MULLIKEN POPULATION ANALYSIS *
                    ********************************

-----------------------
MULLIKEN ATOMIC CHARGES
-----------------------
   0 Kr:   34.000000
Sum of atomic charges:   34.0000000

--------------------------------
MULLIKEN REDUCED ORBITAL CHARGES
--------------------------------
  0 Krs       :     2.000000  s :     2.000000
      pz      :     0.000000  p :     0.000000
      px      :     0.000000
      py      :     0.000000
      dz2     :     0.000000  d :     0.000000
      dxz     :     0.000000
      dyz     :     0.000000
      dx2y2   :     0.000000
      dxy     :     0.000000
      f0      :     0.000000  f :     0.000000
      f+1     :     0.000000
      f-1     :     0.000000
      f+2     :     0.000000
      f-2     :     0.000000
      f+3     :     0.000000
      f-3     :     0.000000


                     *******************************
                     * LOEWDIN POPULATION ANALYSIS *
                     *******************************

----------------------
LOEWDIN ATOMIC CHARGES
----------------------
   0 Kr:   34.000000

-------------------------------
LOEWDIN REDUCED ORBITAL CHARGES
-------------------------------
  0 Krs       :     2.000000  s :     2.000000
      pz      :     0.000000  p :     0.000000
      px      :     0.000000
      py      :     0.000000
      dz2     :     0.000000  d :     0.000000
      dxz     :     0.000000
      dyz     :     0.000000
      dx2y2   :     0.000000
      dxy     :     0.000000
      f0      :     0.000000  f :     0.000000
      f+1     :     0.000000
      f-1     :     0.000000
      f+2     :     0.000000
      f-2     :     0.000000
      f+3     :     0.000000
      f-3     :     0.000000


                      *****************************
                      * MAYER POPULATION ANALYSIS *
                      *****************************

  NA   - Mulliken gross atomic population
  ZA   - Total nuclear charge
  QA   - Mulliken gross atomic charge
  VA   - Mayer's total valence
  BVA  - Mayer's bonded valence
  FA   - Mayer's free valence

  ATOM       NA         ZA         QA         VA         BVA        FA
  0 Kr     2.0000    36.0000    34.0000     0.0000     0.0000     0.0000

  Mayer bond orders larger than 0.100000


--------------------------
ATOM BASIS FOR ELEMENT Kr
--------------------------
 NewGTO Kr
 S 17
    1     600250.975749999983         0.000636722109
    2      89976.650781000004         0.003068542428
    3      20476.814224999998         0.012784600628
    4       5796.155407800000         0.045865868227
    5       1887.591319600000         0.138262168614
    6        679.114585190000         0.301291855254
    7        264.382445110000         0.412232373351
    8        104.883685740000         0.209924494452
    9        641.473707640000         0.014131061278
   10        199.575248200000         0.016624469281
   11         33.545462950000        -0.026744980713
   12         14.683955140000        -0.022175964351
   13         22.603101860000         0.046226915180
   14          4.065068300000         0.004021962640
   15          1.961102710000        -0.002150000962
   16          0.524651480000         0.000592879941
   17          0.193324000000        -0.000206272985
 S 17
    1     600250.975749999983         0.000230558678
    2      89976.650781000004         0.001111126937
    3      20476.814224999998         0.004629336066
    4       5796.155407800000         0.016608146329
    5       1887.591319600000         0.050065079259
    6        679.114585190000         0.109098539135
    7        264.382445110000         0.149270379974
    8        104.883685740000         0.076014187818
    9        641.473707640000         0.046150599406
   10        199.575248200000         0.130672303856
   11         33.545462950000        -1.026257007765
   12         14.683955140000        -0.519430069417
   13         22.603101860000         0.358286191301
   14          4.065068300000         0.039970403655
   15          1.961102710000        -0.022931022715
   16          0.524651480000         0.006451817965
   17          0.193324000000        -0.002239539732
 S 17
    1     600250.975749999983        -0.000122771713
    2      89976.650781000004        -0.000591671322
    3      20476.814224999998        -0.002465105739
    4       5796.155407800000        -0.008843781537
    5       1887.591319600000        -0.026659484738
    6        679.114585190000        -0.058094601708
    7        264.382445110000        -0.079485970575
    8        104.883685740000        -0.040477296951
    9        641.473707640000        -0.032115276487
   10        199.575248200000        -0.081132593786
   11         33.545462950000         0.672936344341
   12         14.683955140000        -1.075531133876
   13         22.603101860000         1.038496727145
   14          4.065068300000        -1.137470088511
   15          1.961102710000         0.303680109535
   16          0.524651480000        -0.070296872245
   17          0.193324000000         0.023262813300
 S 17
    1     600250.975749999983        -0.000077975021
    2      89976.650781000004        -0.000375783497
    3      20476.814224999998        -0.001565642987
    4       5796.155407800000        -0.005616880575
    5       1887.591319600000        -0.016932026346
    6        679.114585190000        -0.036897161980
    7        264.382445110000        -0.050483291824
    8        104.883685740000        -0.025708023434
    9        641.473707640000        -0.024200575392
   10        199.575248200000        -0.048838172230
   11         33.545462950000         0.152633976198
   12         14.683955140000        -2.611351584984
   13         22.603101860000         2.232472477887
   14          4.065068300000        -0.949492804751
   15          1.961102710000         1.966002503858
   16          0.524651480000        -0.198029059234
   17          0.193324000000         0.062945804044
 S 17
    1     600250.975749999983        -0.000058107927
    2      89976.650781000004        -0.000280038400
    3      20476.814224999998        -0.001166736061
    4       5796.155407800000        -0.004185767237
    5       1887.591319600000        -0.012617950514
    6        679.114585190000        -0.027496210698
    7        264.382445110000        -0.037620758731
    8        104.883685740000        -0.019157929527
    9        641.473707640000        -0.021541474016
   10        199.575248200000        -0.029789677508
   11         33.545462950000        -0.336519578365
   12         14.683955140000        -4.111636898764
   13         22.603101860000         3.457392336491
   14          4.065068300000         1.469860257439
   15          1.961102710000         0.534787536169
   16          0.524651480000        -1.673279228418
   17          0.193324000000         0.369064620900
 S 17
    1     600250.975749999983        -0.000067609841
    2      89976.650781000004        -0.000325830788
    3      20476.814224999998        -0.001357522860
    4       5796.155407800000        -0.004870231493
    5       1887.591319600000        -0.014681260682
    6        679.114585190000        -0.031992440974
    7        264.382445110000        -0.043772573476
    8        104.883685740000        -0.022290668933
    9        641.473707640000        -0.027222493165
   10        199.575248200000        -0.030542604727
   11         33.545462950000        -0.714649946380
   12         14.683955140000        -6.607420754551
   13         22.603101860000         5.397988617002
   14          4.065068300000         5.121059777374
   15          1.961102710000        -3.937976805962
   16          0.524651480000         0.656593444612
   17          0.193324000000         0.647913686308
 S 17
    1     600250.975749999983        -0.000046106709
    2      89976.650781000004        -0.000222201163
    3      20476.814224999998        -0.000925766287
    4       5796.155407800000        -0.003321267183
    5       1887.591319600000        -0.010011924359
    6        679.114585190000        -0.021817329317
    7        264.382445110000        -0.029850821678
    8        104.883685740000        -0.015201180341
    9        641.473707640000        -0.018468042899
   10        199.575248200000        -0.021553047239
   11         33.545462950000        -0.478989817607
   12         14.683955140000        -4.797537645959
   13         22.603101860000         3.797284098544
   14          4.065068300000         4.481512504357
   15          1.961102710000        -4.448558959246
   16          0.524651480000         3.313293081653
   17          0.193324000000        -2.190347879115
 S 17
    1     600250.975749999983         0.000237484553
    2      89976.650781000004         0.001144504668
    3      20476.814224999998         0.004768399149
    4       5796.155407800000         0.017107047249
    5       1887.591319600000         0.051569010741
    6        679.114585190000         0.112375808042
    7        264.382445110000         0.153754392124
    8        104.883685740000         0.078297618341
    9        641.473707640000         0.015099874565
   10        199.575248200000         0.382976007069
   11         33.545462950000       -16.293755594243
   12         14.683955140000       -19.049963296647
   13         22.603101860000        32.071940997512
   14          4.065068300000         4.616308111694
   15          1.961102710000        -2.588718381345
   16          0.524651480000         0.748888238018
   17          0.193324000000        -0.267930703684
 S 17
    1     600250.975749999983         0.000446420971
    2      89976.650781000004         0.002151427871
    3      20476.814224999998         0.008963586704
    4       5796.155407800000         0.032157647985
    5       1887.591319600000         0.096938885489
    6        679.114585190000         0.211242865261
    7        264.382445110000         0.289025893603
    8        104.883685740000         0.147183041703
    9        641.473707640000         1.305666364172
   10        199.575248200000        -3.012257483166
   11         33.545462950000         9.535069806831
   12         14.683955140000         7.523810109475
   13         22.603101860000       -15.089152134758
   14          4.065068300000        -1.437734189571
   15          1.961102710000         0.773301110651
   16          0.524651480000        -0.214800924234
   17          0.193324000000         0.075099906231
 S 17
    1     600250.975749999983        -0.005833071219
    2      89976.650781000004        -0.028111206237
    3      20476.814224999998        -0.117120930639
    4       5796.155407800000        -0.420181539309
    5       1887.591319600000        -1.266632750721
    6        679.114585190000        -2.760163067138
    7        264.382445110000        -3.776499603832
    8        104.883685740000        -1.923138068191
    9        641.473707640000         5.692866699467
   10        199.575248200000         3.027461428140
   11         33.545462950000         5.888664350366
   12         14.683955140000         3.940558724212
   13         22.603101860000        -8.381101041588
   14          4.065068300000        -0.715999580115
   15          1.961102710000         0.383022583085
   16          0.524651480000        -0.105906974918
   17          0.193324000000         0.036938043562
 P 13
    1       3232.958961400000         0.004149637930
    2        765.964426940000         0.027849548437
    3        246.339408100000         0.124097454155
    4         92.365283040000         0.344417515262
    5         37.199509550000         0.533902737390
    6         15.172166530000         0.305834623488
    7         60.931321700000        -0.021561700428
    8          9.479260060000        -0.267657661005
    9          4.256468630000         0.176753946210
   10          1.972931380000        -0.100879896099
   11          0.763371090000         0.045632507026
   12          0.309436260000        -0.020771616906
   13          0.115697040000         0.006034905338
 P 13
    1       3232.958961400000         0.002325858990
    2        765.964426940000         0.015609584181
    3        246.339408100000         0.069556232184
    4         92.365283040000         0.193044932493
    5         37.199509550000         0.299250802674
    6         15.172166530000         0.171419343178
    7         60.931321700000         0.022755759416
    8          9.479260060000        -1.268895084960
    9          4.256468630000         0.110449986087
   10          1.972931380000        -0.171643859908
   11          0.763371090000         0.080454790681
   12          0.309436260000        -0.036622519693
   13          0.115697040000         0.010558230798
 P 13
    1       3232.958961400000         0.001482369780
    2        765.964426940000         0.009948658096
    3        246.339408100000         0.044331172722
    4         92.365283040000         0.123035822624
    5         37.199509550000         0.190725382958
    6         15.172166530000         0.109252906197
    7         60.931321700000         0.017841145031
    8          9.479260060000        -1.554159000290
    9          4.256468630000         1.263277514787
   10          1.972931380000         0.417174457270
   11          0.763371090000         0.015721075469
   12          0.309436260000        -0.011084081170
   13          0.115697040000         0.003507708870
 P 13
    1       3232.958961400000         0.001101755218
    2        765.964426940000         0.007394231939
    3        246.339408100000         0.032948662026
    4         92.365283040000         0.091445037155
    5         37.199509550000         0.141754566752
    6         15.172166530000         0.081201034410
    7         60.931321700000         0.009833129812
    8          9.479260060000        -1.596857609545
    9          4.256468630000         2.599214021790
   10          1.972931380000        -1.185815194973
   11          0.763371090000        -0.739089051638
   12          0.309436260000         0.164054657217
   13          0.115697040000        -0.038716935838
 P 13
    1       3232.958961400000         0.000884672945
    2        765.964426940000         0.005937323315
    3        246.339408100000         0.026456684192
    4         92.365283040000         0.073427335746
    5         37.199509550000         0.113824221524
    6         15.172166530000         0.065201740871
    7         60.931321700000         0.006893207715
    8          9.479260060000        -1.523461752995
    9          4.256468630000         3.363526061326
   10          1.972931380000        -3.471591605696
   11          0.763371090000         1.597135502347
   12          0.309436260000         0.275602186069
   13          0.115697040000        -0.054165788988
 P 13
    1       3232.958961400000        -0.000524127686
    2        765.964426940000        -0.003517588671
    3        246.339408100000        -0.015674358234
    4         92.365283040000        -0.043502290622
    5         37.199509550000        -0.067435571703
    6         15.172166530000        -0.038629007190
    7         60.931321700000        -0.005942946920
    8          9.479260060000         0.991384776366
    9          4.256468630000        -2.490508751434
   10          1.972931380000         3.334484711851
   11          0.763371090000        -3.399375440243
   12          0.309436260000         2.368054412554
   13          0.115697040000        -0.234819769015
 P 13
    1       3232.958961400000        -0.000175232519
    2        765.964426940000        -0.001176041527
    3        246.339408100000        -0.005240435400
    4         92.365283040000        -0.014544196347
    5         37.199509550000        -0.022545851760
    6         15.172166530000        -0.012914903037
    7         60.931321700000        -0.003571304381
    8          9.479260060000         0.355690566283
    9          4.256468630000        -0.949097287412
   10          1.972931380000         1.423579377888
   11          0.763371090000        -1.940154426905
   12          0.309436260000         2.442092932854
   13          0.115697040000        -1.868456597523
 P 13
    1       3232.958961400000        -0.025071490702
    2        765.964426940000        -0.168262799427
    3        246.339408100000        -0.749778226575
    4         92.365283040000        -2.080919028938
    5         37.199509550000        -3.225760353656
    6         15.172166530000        -1.847806977067
    7         60.931321700000         5.681816494045
    8          9.479260060000         3.308636866682
    9          4.256468630000        -2.186890933054
   10          1.972931380000         1.220518972763
   11          0.763371090000        -0.547387155946
   12          0.309436260000         0.250512716712
   13          0.115697040000        -0.073491632614
 D 8
    1        186.417609040000         0.011024575940
    2         55.274124350000         0.075005909623
    3         20.283219120000         0.261003535573
    4          8.088453700000         0.497007252606
    5          3.221403390000         0.523936926330
    6          1.195217010000        -0.539411066907
    7          0.648000000000         0.375002956491
    8          0.251000000000        -0.094823822959
 D 8
    1        186.417609040000         0.003270051284
    2         55.274124350000         0.022247855373
    3         20.283219120000         0.077417485374
    4          8.088453700000         0.147419657074
    5          3.221403390000         0.155407394163
    6          1.195217010000        -1.773965566702
    7          0.648000000000         0.921599961222
    8          0.251000000000        -0.207265374984
 D 8
    1        186.417609040000         0.001477493091
    2         55.274124350000         0.010052152016
    3         20.283219120000         0.034979206697
    4          8.088453700000         0.066607984374
    5          3.221403390000         0.070217048984
    6          1.195217010000        -1.558716826028
    7          0.648000000000         2.240339861045
    8          0.251000000000        -0.294362801686
 D 8
    1        186.417609040000         0.000667185770
    2         55.274124350000         0.004539210924
    3         20.283219120000         0.015795423398
    4          8.088453700000         0.030077906682
    5          3.221403390000         0.031707637856
    6          1.195217010000        -0.880951110657
    7          0.648000000000         1.771409464755
    8          0.251000000000        -1.600250152429
 F 1
    1          0.628000000000         1.000000000000
 end
  // -----------------------------------------------
  // The basis set
  // -----------------------------------------------
  BAS[ATNO] = new BFNGauss[NSH];
  // Basis function   1 L = s
  InitBFNGauss(BAS[ATNO][  0]);
  BAS[ATNO][  0].l  = 0;
  BAS[ATNO][  0].ng = 17;
  BAS[ATNO][  0].a[  0] =    600250.975749999983;     BAS[ATNO][  0].d[  0] =         0.000636722109;
  BAS[ATNO][  0].a[  1] =     89976.650781000004;     BAS[ATNO][  0].d[  1] =         0.003068542428;
  BAS[ATNO][  0].a[  2] =     20476.814224999998;     BAS[ATNO][  0].d[  2] =         0.012784600628;
  BAS[ATNO][  0].a[  3] =      5796.155407800000;     BAS[ATNO][  0].d[  3] =         0.045865868227;
  BAS[ATNO][  0].a[  4] =      1887.591319600000;     BAS[ATNO][  0].d[  4] =         0.138262168614;
  BAS[ATNO][  0].a[  5] =       679.114585190000;     BAS[ATNO][  0].d[  5] =         0.301291855254;
  BAS[ATNO][  0].a[  6] =       264.382445110000;     BAS[ATNO][  0].d[  6] =         0.412232373351;
  BAS[ATNO][  0].a[  7] =       104.883685740000;     BAS[ATNO][  0].d[  7] =         0.209924494452;
  BAS[ATNO][  0].a[  8] =       641.473707640000;     BAS[ATNO][  0].d[  8] =         0.014131061278;
  BAS[ATNO][  0].a[  9] =       199.575248200000;     BAS[ATNO][  0].d[  9] =         0.016624469281;
  BAS[ATNO][  0].a[ 10] =        33.545462950000;     BAS[ATNO][  0].d[ 10] =        -0.026744980713;
  BAS[ATNO][  0].a[ 11] =        14.683955140000;     BAS[ATNO][  0].d[ 11] =        -0.022175964351;
  BAS[ATNO][  0].a[ 12] =        22.603101860000;     BAS[ATNO][  0].d[ 12] =         0.046226915180;
  BAS[ATNO][  0].a[ 13] =         4.065068300000;     BAS[ATNO][  0].d[ 13] =         0.004021962640;
  BAS[ATNO][  0].a[ 14] =         1.961102710000;     BAS[ATNO][  0].d[ 14] =        -0.002150000962;
  BAS[ATNO][  0].a[ 15] =         0.524651480000;     BAS[ATNO][  0].d[ 15] =         0.000592879941;
  BAS[ATNO][  0].a[ 16] =         0.193324000000;     BAS[ATNO][  0].d[ 16] =        -0.000206272985;

  // Basis function   2 L = s
  InitBFNGauss(BAS[ATNO][  1]);
  BAS[ATNO][  1].l  = 0;
  BAS[ATNO][  1].ng = 17;
  BAS[ATNO][  1].a[  0] =    600250.975749999983;     BAS[ATNO][  1].d[  0] =        -0.000230558678;
  BAS[ATNO][  1].a[  1] =     89976.650781000004;     BAS[ATNO][  1].d[  1] =        -0.001111126937;
  BAS[ATNO][  1].a[  2] =     20476.814224999998;     BAS[ATNO][  1].d[  2] =        -0.004629336066;
  BAS[ATNO][  1].a[  3] =      5796.155407800000;     BAS[ATNO][  1].d[  3] =        -0.016608146329;
  BAS[ATNO][  1].a[  4] =      1887.591319600000;     BAS[ATNO][  1].d[  4] =        -0.050065079259;
  BAS[ATNO][  1].a[  5] =       679.114585190000;     BAS[ATNO][  1].d[  5] =        -0.109098539135;
  BAS[ATNO][  1].a[  6] =       264.382445110000;     BAS[ATNO][  1].d[  6] =        -0.149270379974;
  BAS[ATNO][  1].a[  7] =       104.883685740000;     BAS[ATNO][  1].d[  7] =        -0.076014187818;
  BAS[ATNO][  1].a[  8] =       641.473707640000;     BAS[ATNO][  1].d[  8] =        -0.046150599406;
  BAS[ATNO][  1].a[  9] =       199.575248200000;     BAS[ATNO][  1].d[  9] =        -0.130672303856;
  BAS[ATNO][  1].a[ 10] =        33.545462950000;     BAS[ATNO][  1].d[ 10] =         1.026257007765;
  BAS[ATNO][  1].a[ 11] =        14.683955140000;     BAS[ATNO][  1].d[ 11] =         0.519430069417;
  BAS[ATNO][  1].a[ 12] =        22.603101860000;     BAS[ATNO][  1].d[ 12] =        -0.358286191301;
  BAS[ATNO][  1].a[ 13] =         4.065068300000;     BAS[ATNO][  1].d[ 13] =        -0.039970403655;
  BAS[ATNO][  1].a[ 14] =         1.961102710000;     BAS[ATNO][  1].d[ 14] =         0.022931022715;
  BAS[ATNO][  1].a[ 15] =         0.524651480000;     BAS[ATNO][  1].d[ 15] =        -0.006451817965;
  BAS[ATNO][  1].a[ 16] =         0.193324000000;     BAS[ATNO][  1].d[ 16] =         0.002239539732;

  // Basis function   3 L = s
  InitBFNGauss(BAS[ATNO][  2]);
  BAS[ATNO][  2].l  = 0;
  BAS[ATNO][  2].ng = 17;
  BAS[ATNO][  2].a[  0] =    600250.975749999983;     BAS[ATNO][  2].d[  0] =         0.000122771713;
  BAS[ATNO][  2].a[  1] =     89976.650781000004;     BAS[ATNO][  2].d[  1] =         0.000591671322;
  BAS[ATNO][  2].a[  2] =     20476.814224999998;     BAS[ATNO][  2].d[  2] =         0.002465105739;
  BAS[ATNO][  2].a[  3] =      5796.155407800000;     BAS[ATNO][  2].d[  3] =         0.008843781537;
  BAS[ATNO][  2].a[  4] =      1887.591319600000;     BAS[ATNO][  2].d[  4] =         0.026659484738;
  BAS[ATNO][  2].a[  5] =       679.114585190000;     BAS[ATNO][  2].d[  5] =         0.058094601708;
  BAS[ATNO][  2].a[  6] =       264.382445110000;     BAS[ATNO][  2].d[  6] =         0.079485970575;
  BAS[ATNO][  2].a[  7] =       104.883685740000;     BAS[ATNO][  2].d[  7] =         0.040477296951;
  BAS[ATNO][  2].a[  8] =       641.473707640000;     BAS[ATNO][  2].d[  8] =         0.032115276487;
  BAS[ATNO][  2].a[  9] =       199.575248200000;     BAS[ATNO][  2].d[  9] =         0.081132593786;
  BAS[ATNO][  2].a[ 10] =        33.545462950000;     BAS[ATNO][  2].d[ 10] =        -0.672936344341;
  BAS[ATNO][  2].a[ 11] =        14.683955140000;     BAS[ATNO][  2].d[ 11] =         1.075531133876;
  BAS[ATNO][  2].a[ 12] =        22.603101860000;     BAS[ATNO][  2].d[ 12] =        -1.038496727145;
  BAS[ATNO][  2].a[ 13] =         4.065068300000;     BAS[ATNO][  2].d[ 13] =         1.137470088511;
  BAS[ATNO][  2].a[ 14] =         1.961102710000;     BAS[ATNO][  2].d[ 14] =        -0.303680109535;
  BAS[ATNO][  2].a[ 15] =         0.524651480000;     BAS[ATNO][  2].d[ 15] =         0.070296872245;
  BAS[ATNO][  2].a[ 16] =         0.193324000000;     BAS[ATNO][  2].d[ 16] =        -0.023262813300;

  // Basis function   4 L = s
  InitBFNGauss(BAS[ATNO][  3]);
  BAS[ATNO][  3].l  = 0;
  BAS[ATNO][  3].ng = 17;
  BAS[ATNO][  3].a[  0] =    600250.975749999983;     BAS[ATNO][  3].d[  0] =         0.000077975021;
  BAS[ATNO][  3].a[  1] =     89976.650781000004;     BAS[ATNO][  3].d[  1] =         0.000375783497;
  BAS[ATNO][  3].a[  2] =     20476.814224999998;     BAS[ATNO][  3].d[  2] =         0.001565642987;
  BAS[ATNO][  3].a[  3] =      5796.155407800000;     BAS[ATNO][  3].d[  3] =         0.005616880575;
  BAS[ATNO][  3].a[  4] =      1887.591319600000;     BAS[ATNO][  3].d[  4] =         0.016932026346;
  BAS[ATNO][  3].a[  5] =       679.114585190000;     BAS[ATNO][  3].d[  5] =         0.036897161980;
  BAS[ATNO][  3].a[  6] =       264.382445110000;     BAS[ATNO][  3].d[  6] =         0.050483291824;
  BAS[ATNO][  3].a[  7] =       104.883685740000;     BAS[ATNO][  3].d[  7] =         0.025708023434;
  BAS[ATNO][  3].a[  8] =       641.473707640000;     BAS[ATNO][  3].d[  8] =         0.024200575392;
  BAS[ATNO][  3].a[  9] =       199.575248200000;     BAS[ATNO][  3].d[  9] =         0.048838172230;
  BAS[ATNO][  3].a[ 10] =        33.545462950000;     BAS[ATNO][  3].d[ 10] =        -0.152633976198;
  BAS[ATNO][  3].a[ 11] =        14.683955140000;     BAS[ATNO][  3].d[ 11] =         2.611351584984;
  BAS[ATNO][  3].a[ 12] =        22.603101860000;     BAS[ATNO][  3].d[ 12] =        -2.232472477887;
  BAS[ATNO][  3].a[ 13] =         4.065068300000;     BAS[ATNO][  3].d[ 13] =         0.949492804751;
  BAS[ATNO][  3].a[ 14] =         1.961102710000;     BAS[ATNO][  3].d[ 14] =        -1.966002503858;
  BAS[ATNO][  3].a[ 15] =         0.524651480000;     BAS[ATNO][  3].d[ 15] =         0.198029059234;
  BAS[ATNO][  3].a[ 16] =         0.193324000000;     BAS[ATNO][  3].d[ 16] =        -0.062945804044;

  // Basis function   5 L = s
  InitBFNGauss(BAS[ATNO][  4]);
  BAS[ATNO][  4].l  = 0;
  BAS[ATNO][  4].ng = 17;
  BAS[ATNO][  4].a[  0] =    600250.975749999983;     BAS[ATNO][  4].d[  0] =         0.000058107927;
  BAS[ATNO][  4].a[  1] =     89976.650781000004;     BAS[ATNO][  4].d[  1] =         0.000280038400;
  BAS[ATNO][  4].a[  2] =     20476.814224999998;     BAS[ATNO][  4].d[  2] =         0.001166736061;
  BAS[ATNO][  4].a[  3] =      5796.155407800000;     BAS[ATNO][  4].d[  3] =         0.004185767237;
  BAS[ATNO][  4].a[  4] =      1887.591319600000;     BAS[ATNO][  4].d[  4] =         0.012617950514;
  BAS[ATNO][  4].a[  5] =       679.114585190000;     BAS[ATNO][  4].d[  5] =         0.027496210698;
  BAS[ATNO][  4].a[  6] =       264.382445110000;     BAS[ATNO][  4].d[  6] =         0.037620758731;
  BAS[ATNO][  4].a[  7] =       104.883685740000;     BAS[ATNO][  4].d[  7] =         0.019157929527;
  BAS[ATNO][  4].a[  8] =       641.473707640000;     BAS[ATNO][  4].d[  8] =         0.021541474016;
  BAS[ATNO][  4].a[  9] =       199.575248200000;     BAS[ATNO][  4].d[  9] =         0.029789677508;
  BAS[ATNO][  4].a[ 10] =        33.545462950000;     BAS[ATNO][  4].d[ 10] =         0.336519578365;
  BAS[ATNO][  4].a[ 11] =        14.683955140000;     BAS[ATNO][  4].d[ 11] =         4.111636898764;
  BAS[ATNO][  4].a[ 12] =        22.603101860000;     BAS[ATNO][  4].d[ 12] =        -3.457392336491;
  BAS[ATNO][  4].a[ 13] =         4.065068300000;     BAS[ATNO][  4].d[ 13] =        -1.469860257439;
  BAS[ATNO][  4].a[ 14] =         1.961102710000;     BAS[ATNO][  4].d[ 14] =        -0.534787536169;
  BAS[ATNO][  4].a[ 15] =         0.524651480000;     BAS[ATNO][  4].d[ 15] =         1.673279228418;
  BAS[ATNO][  4].a[ 16] =         0.193324000000;     BAS[ATNO][  4].d[ 16] =        -0.369064620900;

  // Basis function   6 L = s
  InitBFNGauss(BAS[ATNO][  5]);
  BAS[ATNO][  5].l  = 0;
  BAS[ATNO][  5].ng = 17;
  BAS[ATNO][  5].a[  0] =    600250.975749999983;     BAS[ATNO][  5].d[  0] =         0.000067609841;
  BAS[ATNO][  5].a[  1] =     89976.650781000004;     BAS[ATNO][  5].d[  1] =         0.000325830788;
  BAS[ATNO][  5].a[  2] =     20476.814224999998;     BAS[ATNO][  5].d[  2] =         0.001357522860;
  BAS[ATNO][  5].a[  3] =      5796.155407800000;     BAS[ATNO][  5].d[  3] =         0.004870231493;
  BAS[ATNO][  5].a[  4] =      1887.591319600000;     BAS[ATNO][  5].d[  4] =         0.014681260682;
  BAS[ATNO][  5].a[  5] =       679.114585190000;     BAS[ATNO][  5].d[  5] =         0.031992440974;
  BAS[ATNO][  5].a[  6] =       264.382445110000;     BAS[ATNO][  5].d[  6] =         0.043772573476;
  BAS[ATNO][  5].a[  7] =       104.883685740000;     BAS[ATNO][  5].d[  7] =         0.022290668933;
  BAS[ATNO][  5].a[  8] =       641.473707640000;     BAS[ATNO][  5].d[  8] =         0.027222493165;
  BAS[ATNO][  5].a[  9] =       199.575248200000;     BAS[ATNO][  5].d[  9] =         0.030542604727;
  BAS[ATNO][  5].a[ 10] =        33.545462950000;     BAS[ATNO][  5].d[ 10] =         0.714649946380;
  BAS[ATNO][  5].a[ 11] =        14.683955140000;     BAS[ATNO][  5].d[ 11] =         6.607420754551;
  BAS[ATNO][  5].a[ 12] =        22.603101860000;     BAS[ATNO][  5].d[ 12] =        -5.397988617002;
  BAS[ATNO][  5].a[ 13] =         4.065068300000;     BAS[ATNO][  5].d[ 13] =        -5.121059777374;
  BAS[ATNO][  5].a[ 14] =         1.961102710000;     BAS[ATNO][  5].d[ 14] =         3.937976805962;
  BAS[ATNO][  5].a[ 15] =         0.524651480000;     BAS[ATNO][  5].d[ 15] =        -0.656593444612;
  BAS[ATNO][  5].a[ 16] =         0.193324000000;     BAS[ATNO][  5].d[ 16] =        -0.647913686308;

  // Basis function   7 L = s
  InitBFNGauss(BAS[ATNO][  6]);
  BAS[ATNO][  6].l  = 0;
  BAS[ATNO][  6].ng = 17;
  BAS[ATNO][  6].a[  0] =    600250.975749999983;     BAS[ATNO][  6].d[  0] =         0.000046106709;
  BAS[ATNO][  6].a[  1] =     89976.650781000004;     BAS[ATNO][  6].d[  1] =         0.000222201163;
  BAS[ATNO][  6].a[  2] =     20476.814224999998;     BAS[ATNO][  6].d[  2] =         0.000925766287;
  BAS[ATNO][  6].a[  3] =      5796.155407800000;     BAS[ATNO][  6].d[  3] =         0.003321267183;
  BAS[ATNO][  6].a[  4] =      1887.591319600000;     BAS[ATNO][  6].d[  4] =         0.010011924359;
  BAS[ATNO][  6].a[  5] =       679.114585190000;     BAS[ATNO][  6].d[  5] =         0.021817329317;
  BAS[ATNO][  6].a[  6] =       264.382445110000;     BAS[ATNO][  6].d[  6] =         0.029850821678;
  BAS[ATNO][  6].a[  7] =       104.883685740000;     BAS[ATNO][  6].d[  7] =         0.015201180341;
  BAS[ATNO][  6].a[  8] =       641.473707640000;     BAS[ATNO][  6].d[  8] =         0.018468042899;
  BAS[ATNO][  6].a[  9] =       199.575248200000;     BAS[ATNO][  6].d[  9] =         0.021553047239;
  BAS[ATNO][  6].a[ 10] =        33.545462950000;     BAS[ATNO][  6].d[ 10] =         0.478989817607;
  BAS[ATNO][  6].a[ 11] =        14.683955140000;     BAS[ATNO][  6].d[ 11] =         4.797537645959;
  BAS[ATNO][  6].a[ 12] =        22.603101860000;     BAS[ATNO][  6].d[ 12] =        -3.797284098544;
  BAS[ATNO][  6].a[ 13] =         4.065068300000;     BAS[ATNO][  6].d[ 13] =        -4.481512504357;
  BAS[ATNO][  6].a[ 14] =         1.961102710000;     BAS[ATNO][  6].d[ 14] =         4.448558959246;
  BAS[ATNO][  6].a[ 15] =         0.524651480000;     BAS[ATNO][  6].d[ 15] =        -3.313293081653;
  BAS[ATNO][  6].a[ 16] =         0.193324000000;     BAS[ATNO][  6].d[ 16] =         2.190347879115;

  // Basis function   8 L = s
  InitBFNGauss(BAS[ATNO][  7]);
  BAS[ATNO][  7].l  = 0;
  BAS[ATNO][  7].ng = 17;
  BAS[ATNO][  7].a[  0] =    600250.975749999983;     BAS[ATNO][  7].d[  0] =         0.000237484553;
  BAS[ATNO][  7].a[  1] =     89976.650781000004;     BAS[ATNO][  7].d[  1] =         0.001144504668;
  BAS[ATNO][  7].a[  2] =     20476.814224999998;     BAS[ATNO][  7].d[  2] =         0.004768399149;
  BAS[ATNO][  7].a[  3] =      5796.155407800000;     BAS[ATNO][  7].d[  3] =         0.017107047249;
  BAS[ATNO][  7].a[  4] =      1887.591319600000;     BAS[ATNO][  7].d[  4] =         0.051569010741;
  BAS[ATNO][  7].a[  5] =       679.114585190000;     BAS[ATNO][  7].d[  5] =         0.112375808042;
  BAS[ATNO][  7].a[  6] =       264.382445110000;     BAS[ATNO][  7].d[  6] =         0.153754392124;
  BAS[ATNO][  7].a[  7] =       104.883685740000;     BAS[ATNO][  7].d[  7] =         0.078297618341;
  BAS[ATNO][  7].a[  8] =       641.473707640000;     BAS[ATNO][  7].d[  8] =         0.015099874565;
  BAS[ATNO][  7].a[  9] =       199.575248200000;     BAS[ATNO][  7].d[  9] =         0.382976007069;
  BAS[ATNO][  7].a[ 10] =        33.545462950000;     BAS[ATNO][  7].d[ 10] =       -16.293755594243;
  BAS[ATNO][  7].a[ 11] =        14.683955140000;     BAS[ATNO][  7].d[ 11] =       -19.049963296647;
  BAS[ATNO][  7].a[ 12] =        22.603101860000;     BAS[ATNO][  7].d[ 12] =        32.071940997512;
  BAS[ATNO][  7].a[ 13] =         4.065068300000;     BAS[ATNO][  7].d[ 13] =         4.616308111694;
  BAS[ATNO][  7].a[ 14] =         1.961102710000;     BAS[ATNO][  7].d[ 14] =        -2.588718381345;
  BAS[ATNO][  7].a[ 15] =         0.524651480000;     BAS[ATNO][  7].d[ 15] =         0.748888238018;
  BAS[ATNO][  7].a[ 16] =         0.193324000000;     BAS[ATNO][  7].d[ 16] =        -0.267930703684;

  // Basis function   9 L = s
  InitBFNGauss(BAS[ATNO][  8]);
  BAS[ATNO][  8].l  = 0;
  BAS[ATNO][  8].ng = 17;
  BAS[ATNO][  8].a[  0] =    600250.975749999983;     BAS[ATNO][  8].d[  0] =        -0.000446420971;
  BAS[ATNO][  8].a[  1] =     89976.650781000004;     BAS[ATNO][  8].d[  1] =        -0.002151427871;
  BAS[ATNO][  8].a[  2] =     20476.814224999998;     BAS[ATNO][  8].d[  2] =        -0.008963586704;
  BAS[ATNO][  8].a[  3] =      5796.155407800000;     BAS[ATNO][  8].d[  3] =        -0.032157647985;
  BAS[ATNO][  8].a[  4] =      1887.591319600000;     BAS[ATNO][  8].d[  4] =        -0.096938885489;
  BAS[ATNO][  8].a[  5] =       679.114585190000;     BAS[ATNO][  8].d[  5] =        -0.211242865261;
  BAS[ATNO][  8].a[  6] =       264.382445110000;     BAS[ATNO][  8].d[  6] =        -0.289025893603;
  BAS[ATNO][  8].a[  7] =       104.883685740000;     BAS[ATNO][  8].d[  7] =        -0.147183041703;
  BAS[ATNO][  8].a[  8] =       641.473707640000;     BAS[ATNO][  8].d[  8] =        -1.305666364172;
  BAS[ATNO][  8].a[  9] =       199.575248200000;     BAS[ATNO][  8].d[  9] =         3.012257483166;
  BAS[ATNO][  8].a[ 10] =        33.545462950000;     BAS[ATNO][  8].d[ 10] =        -9.535069806831;
  BAS[ATNO][  8].a[ 11] =        14.683955140000;     BAS[ATNO][  8].d[ 11] =        -7.523810109475;
  BAS[ATNO][  8].a[ 12] =        22.603101860000;     BAS[ATNO][  8].d[ 12] =        15.089152134758;
  BAS[ATNO][  8].a[ 13] =         4.065068300000;     BAS[ATNO][  8].d[ 13] =         1.437734189571;
  BAS[ATNO][  8].a[ 14] =         1.961102710000;     BAS[ATNO][  8].d[ 14] =        -0.773301110651;
  BAS[ATNO][  8].a[ 15] =         0.524651480000;     BAS[ATNO][  8].d[ 15] =         0.214800924234;
  BAS[ATNO][  8].a[ 16] =         0.193324000000;     BAS[ATNO][  8].d[ 16] =        -0.075099906231;

  // Basis function  10 L = s
  InitBFNGauss(BAS[ATNO][  9]);
  BAS[ATNO][  9].l  = 0;
  BAS[ATNO][  9].ng = 17;
  BAS[ATNO][  9].a[  0] =    600250.975749999983;     BAS[ATNO][  9].d[  0] =         0.005833071219;
  BAS[ATNO][  9].a[  1] =     89976.650781000004;     BAS[ATNO][  9].d[  1] =         0.028111206237;
  BAS[ATNO][  9].a[  2] =     20476.814224999998;     BAS[ATNO][  9].d[  2] =         0.117120930639;
  BAS[ATNO][  9].a[  3] =      5796.155407800000;     BAS[ATNO][  9].d[  3] =         0.420181539309;
  BAS[ATNO][  9].a[  4] =      1887.591319600000;     BAS[ATNO][  9].d[  4] =         1.266632750721;
  BAS[ATNO][  9].a[  5] =       679.114585190000;     BAS[ATNO][  9].d[  5] =         2.760163067138;
  BAS[ATNO][  9].a[  6] =       264.382445110000;     BAS[ATNO][  9].d[  6] =         3.776499603832;
  BAS[ATNO][  9].a[  7] =       104.883685740000;     BAS[ATNO][  9].d[  7] =         1.923138068191;
  BAS[ATNO][  9].a[  8] =       641.473707640000;     BAS[ATNO][  9].d[  8] =        -5.692866699467;
  BAS[ATNO][  9].a[  9] =       199.575248200000;     BAS[ATNO][  9].d[  9] =        -3.027461428140;
  BAS[ATNO][  9].a[ 10] =        33.545462950000;     BAS[ATNO][  9].d[ 10] =        -5.888664350366;
  BAS[ATNO][  9].a[ 11] =        14.683955140000;     BAS[ATNO][  9].d[ 11] =        -3.940558724212;
  BAS[ATNO][  9].a[ 12] =        22.603101860000;     BAS[ATNO][  9].d[ 12] =         8.381101041588;
  BAS[ATNO][  9].a[ 13] =         4.065068300000;     BAS[ATNO][  9].d[ 13] =         0.715999580115;
  BAS[ATNO][  9].a[ 14] =         1.961102710000;     BAS[ATNO][  9].d[ 14] =        -0.383022583085;
  BAS[ATNO][  9].a[ 15] =         0.524651480000;     BAS[ATNO][  9].d[ 15] =         0.105906974918;
  BAS[ATNO][  9].a[ 16] =         0.193324000000;     BAS[ATNO][  9].d[ 16] =        -0.036938043562;

  // Basis function  11 L = p
  InitBFNGauss(BAS[ATNO][ 10]);
  BAS[ATNO][ 10].l  = 1;
  BAS[ATNO][ 10].ng = 13;
  BAS[ATNO][ 10].a[  0] =      3232.958961400000;     BAS[ATNO][ 10].d[  0] =         0.004149637930;
  BAS[ATNO][ 10].a[  1] =       765.964426940000;     BAS[ATNO][ 10].d[  1] =         0.027849548437;
  BAS[ATNO][ 10].a[  2] =       246.339408100000;     BAS[ATNO][ 10].d[  2] =         0.124097454155;
  BAS[ATNO][ 10].a[  3] =        92.365283040000;     BAS[ATNO][ 10].d[  3] =         0.344417515262;
  BAS[ATNO][ 10].a[  4] =        37.199509550000;     BAS[ATNO][ 10].d[  4] =         0.533902737390;
  BAS[ATNO][ 10].a[  5] =        15.172166530000;     BAS[ATNO][ 10].d[  5] =         0.305834623488;
  BAS[ATNO][ 10].a[  6] =        60.931321700000;     BAS[ATNO][ 10].d[  6] =        -0.021561700428;
  BAS[ATNO][ 10].a[  7] =         9.479260060000;     BAS[ATNO][ 10].d[  7] =        -0.267657661005;
  BAS[ATNO][ 10].a[  8] =         4.256468630000;     BAS[ATNO][ 10].d[  8] =         0.176753946210;
  BAS[ATNO][ 10].a[  9] =         1.972931380000;     BAS[ATNO][ 10].d[  9] =        -0.100879896099;
  BAS[ATNO][ 10].a[ 10] =         0.763371090000;     BAS[ATNO][ 10].d[ 10] =         0.045632507026;
  BAS[ATNO][ 10].a[ 11] =         0.309436260000;     BAS[ATNO][ 10].d[ 11] =        -0.020771616906;
  BAS[ATNO][ 10].a[ 12] =         0.115697040000;     BAS[ATNO][ 10].d[ 12] =         0.006034905338;

  // Basis function  12 L = p
  InitBFNGauss(BAS[ATNO][ 11]);
  BAS[ATNO][ 11].l  = 1;
  BAS[ATNO][ 11].ng = 13;
  BAS[ATNO][ 11].a[  0] =      3232.958961400000;     BAS[ATNO][ 11].d[  0] =        -0.002325858990;
  BAS[ATNO][ 11].a[  1] =       765.964426940000;     BAS[ATNO][ 11].d[  1] =        -0.015609584181;
  BAS[ATNO][ 11].a[  2] =       246.339408100000;     BAS[ATNO][ 11].d[  2] =        -0.069556232184;
  BAS[ATNO][ 11].a[  3] =        92.365283040000;     BAS[ATNO][ 11].d[  3] =        -0.193044932493;
  BAS[ATNO][ 11].a[  4] =        37.199509550000;     BAS[ATNO][ 11].d[  4] =        -0.299250802674;
  BAS[ATNO][ 11].a[  5] =        15.172166530000;     BAS[ATNO][ 11].d[  5] =        -0.171419343178;
  BAS[ATNO][ 11].a[  6] =        60.931321700000;     BAS[ATNO][ 11].d[  6] =        -0.022755759416;
  BAS[ATNO][ 11].a[  7] =         9.479260060000;     BAS[ATNO][ 11].d[  7] =         1.268895084960;
  BAS[ATNO][ 11].a[  8] =         4.256468630000;     BAS[ATNO][ 11].d[  8] =        -0.110449986087;
  BAS[ATNO][ 11].a[  9] =         1.972931380000;     BAS[ATNO][ 11].d[  9] =         0.171643859908;
  BAS[ATNO][ 11].a[ 10] =         0.763371090000;     BAS[ATNO][ 11].d[ 10] =        -0.080454790681;
  BAS[ATNO][ 11].a[ 11] =         0.309436260000;     BAS[ATNO][ 11].d[ 11] =         0.036622519693;
  BAS[ATNO][ 11].a[ 12] =         0.115697040000;     BAS[ATNO][ 11].d[ 12] =        -0.010558230798;

  // Basis function  13 L = p
  InitBFNGauss(BAS[ATNO][ 12]);
  BAS[ATNO][ 12].l  = 1;
  BAS[ATNO][ 12].ng = 13;
  BAS[ATNO][ 12].a[  0] =      3232.958961400000;     BAS[ATNO][ 12].d[  0] =        -0.001482369780;
  BAS[ATNO][ 12].a[  1] =       765.964426940000;     BAS[ATNO][ 12].d[  1] =        -0.009948658096;
  BAS[ATNO][ 12].a[  2] =       246.339408100000;     BAS[ATNO][ 12].d[  2] =        -0.044331172722;
  BAS[ATNO][ 12].a[  3] =        92.365283040000;     BAS[ATNO][ 12].d[  3] =        -0.123035822624;
  BAS[ATNO][ 12].a[  4] =        37.199509550000;     BAS[ATNO][ 12].d[  4] =        -0.190725382958;
  BAS[ATNO][ 12].a[  5] =        15.172166530000;     BAS[ATNO][ 12].d[  5] =        -0.109252906197;
  BAS[ATNO][ 12].a[  6] =        60.931321700000;     BAS[ATNO][ 12].d[  6] =        -0.017841145031;
  BAS[ATNO][ 12].a[  7] =         9.479260060000;     BAS[ATNO][ 12].d[  7] =         1.554159000290;
  BAS[ATNO][ 12].a[  8] =         4.256468630000;     BAS[ATNO][ 12].d[  8] =        -1.263277514787;
  BAS[ATNO][ 12].a[  9] =         1.972931380000;     BAS[ATNO][ 12].d[  9] =        -0.417174457270;
  BAS[ATNO][ 12].a[ 10] =         0.763371090000;     BAS[ATNO][ 12].d[ 10] =        -0.015721075469;
  BAS[ATNO][ 12].a[ 11] =         0.309436260000;     BAS[ATNO][ 12].d[ 11] =         0.011084081170;
  BAS[ATNO][ 12].a[ 12] =         0.115697040000;     BAS[ATNO][ 12].d[ 12] =        -0.003507708870;

  // Basis function  14 L = p
  InitBFNGauss(BAS[ATNO][ 13]);
  BAS[ATNO][ 13].l  = 1;
  BAS[ATNO][ 13].ng = 13;
  BAS[ATNO][ 13].a[  0] =      3232.958961400000;     BAS[ATNO][ 13].d[  0] =         0.001101755218;
  BAS[ATNO][ 13].a[  1] =       765.964426940000;     BAS[ATNO][ 13].d[  1] =         0.007394231939;
  BAS[ATNO][ 13].a[  2] =       246.339408100000;     BAS[ATNO][ 13].d[  2] =         0.032948662026;
  BAS[ATNO][ 13].a[  3] =        92.365283040000;     BAS[ATNO][ 13].d[  3] =         0.091445037155;
  BAS[ATNO][ 13].a[  4] =        37.199509550000;     BAS[ATNO][ 13].d[  4] =         0.141754566752;
  BAS[ATNO][ 13].a[  5] =        15.172166530000;     BAS[ATNO][ 13].d[  5] =         0.081201034410;
  BAS[ATNO][ 13].a[  6] =        60.931321700000;     BAS[ATNO][ 13].d[  6] =         0.009833129812;
  BAS[ATNO][ 13].a[  7] =         9.479260060000;     BAS[ATNO][ 13].d[  7] =        -1.596857609545;
  BAS[ATNO][ 13].a[  8] =         4.256468630000;     BAS[ATNO][ 13].d[  8] =         2.599214021790;
  BAS[ATNO][ 13].a[  9] =         1.972931380000;     BAS[ATNO][ 13].d[  9] =        -1.185815194973;
  BAS[ATNO][ 13].a[ 10] =         0.763371090000;     BAS[ATNO][ 13].d[ 10] =        -0.739089051638;
  BAS[ATNO][ 13].a[ 11] =         0.309436260000;     BAS[ATNO][ 13].d[ 11] =         0.164054657217;
  BAS[ATNO][ 13].a[ 12] =         0.115697040000;     BAS[ATNO][ 13].d[ 12] =        -0.038716935838;

  // Basis function  15 L = p
  InitBFNGauss(BAS[ATNO][ 14]);
  BAS[ATNO][ 14].l  = 1;
  BAS[ATNO][ 14].ng = 13;
  BAS[ATNO][ 14].a[  0] =      3232.958961400000;     BAS[ATNO][ 14].d[  0] =        -0.000884672945;
  BAS[ATNO][ 14].a[  1] =       765.964426940000;     BAS[ATNO][ 14].d[  1] =        -0.005937323315;
  BAS[ATNO][ 14].a[  2] =       246.339408100000;     BAS[ATNO][ 14].d[  2] =        -0.026456684192;
  BAS[ATNO][ 14].a[  3] =        92.365283040000;     BAS[ATNO][ 14].d[  3] =        -0.073427335746;
  BAS[ATNO][ 14].a[  4] =        37.199509550000;     BAS[ATNO][ 14].d[  4] =        -0.113824221524;
  BAS[ATNO][ 14].a[  5] =        15.172166530000;     BAS[ATNO][ 14].d[  5] =        -0.065201740871;
  BAS[ATNO][ 14].a[  6] =        60.931321700000;     BAS[ATNO][ 14].d[  6] =        -0.006893207715;
  BAS[ATNO][ 14].a[  7] =         9.479260060000;     BAS[ATNO][ 14].d[  7] =         1.523461752995;
  BAS[ATNO][ 14].a[  8] =         4.256468630000;     BAS[ATNO][ 14].d[  8] =        -3.363526061326;
  BAS[ATNO][ 14].a[  9] =         1.972931380000;     BAS[ATNO][ 14].d[  9] =         3.471591605696;
  BAS[ATNO][ 14].a[ 10] =         0.763371090000;     BAS[ATNO][ 14].d[ 10] =        -1.597135502347;
  BAS[ATNO][ 14].a[ 11] =         0.309436260000;     BAS[ATNO][ 14].d[ 11] =        -0.275602186069;
  BAS[ATNO][ 14].a[ 12] =         0.115697040000;     BAS[ATNO][ 14].d[ 12] =         0.054165788988;

  // Basis function  16 L = p
  InitBFNGauss(BAS[ATNO][ 15]);
  BAS[ATNO][ 15].l  = 1;
  BAS[ATNO][ 15].ng = 13;
  BAS[ATNO][ 15].a[  0] =      3232.958961400000;     BAS[ATNO][ 15].d[  0] =         0.000524127686;
  BAS[ATNO][ 15].a[  1] =       765.964426940000;     BAS[ATNO][ 15].d[  1] =         0.003517588671;
  BAS[ATNO][ 15].a[  2] =       246.339408100000;     BAS[ATNO][ 15].d[  2] =         0.015674358234;
  BAS[ATNO][ 15].a[  3] =        92.365283040000;     BAS[ATNO][ 15].d[  3] =         0.043502290622;
  BAS[ATNO][ 15].a[  4] =        37.199509550000;     BAS[ATNO][ 15].d[  4] =         0.067435571703;
  BAS[ATNO][ 15].a[  5] =        15.172166530000;     BAS[ATNO][ 15].d[  5] =         0.038629007190;
  BAS[ATNO][ 15].a[  6] =        60.931321700000;     BAS[ATNO][ 15].d[  6] =         0.005942946920;
  BAS[ATNO][ 15].a[  7] =         9.479260060000;     BAS[ATNO][ 15].d[  7] =        -0.991384776366;
  BAS[ATNO][ 15].a[  8] =         4.256468630000;     BAS[ATNO][ 15].d[  8] =         2.490508751434;
  BAS[ATNO][ 15].a[  9] =         1.972931380000;     BAS[ATNO][ 15].d[  9] =        -3.334484711851;
  BAS[ATNO][ 15].a[ 10] =         0.763371090000;     BAS[ATNO][ 15].d[ 10] =         3.399375440243;
  BAS[ATNO][ 15].a[ 11] =         0.309436260000;     BAS[ATNO][ 15].d[ 11] =        -2.368054412554;
  BAS[ATNO][ 15].a[ 12] =         0.115697040000;     BAS[ATNO][ 15].d[ 12] =         0.234819769015;

  // Basis function  17 L = p
  InitBFNGauss(BAS[ATNO][ 16]);
  BAS[ATNO][ 16].l  = 1;
  BAS[ATNO][ 16].ng = 13;
  BAS[ATNO][ 16].a[  0] =      3232.958961400000;     BAS[ATNO][ 16].d[  0] =        -0.000175232519;
  BAS[ATNO][ 16].a[  1] =       765.964426940000;     BAS[ATNO][ 16].d[  1] =        -0.001176041527;
  BAS[ATNO][ 16].a[  2] =       246.339408100000;     BAS[ATNO][ 16].d[  2] =        -0.005240435400;
  BAS[ATNO][ 16].a[  3] =        92.365283040000;     BAS[ATNO][ 16].d[  3] =        -0.014544196347;
  BAS[ATNO][ 16].a[  4] =        37.199509550000;     BAS[ATNO][ 16].d[  4] =        -0.022545851760;
  BAS[ATNO][ 16].a[  5] =        15.172166530000;     BAS[ATNO][ 16].d[  5] =        -0.012914903037;
  BAS[ATNO][ 16].a[  6] =        60.931321700000;     BAS[ATNO][ 16].d[  6] =        -0.003571304381;
  BAS[ATNO][ 16].a[  7] =         9.479260060000;     BAS[ATNO][ 16].d[  7] =         0.355690566283;
  BAS[ATNO][ 16].a[  8] =         4.256468630000;     BAS[ATNO][ 16].d[  8] =        -0.949097287412;
  BAS[ATNO][ 16].a[  9] =         1.972931380000;     BAS[ATNO][ 16].d[  9] =         1.423579377888;
  BAS[ATNO][ 16].a[ 10] =         0.763371090000;     BAS[ATNO][ 16].d[ 10] =        -1.940154426905;
  BAS[ATNO][ 16].a[ 11] =         0.309436260000;     BAS[ATNO][ 16].d[ 11] =         2.442092932854;
  BAS[ATNO][ 16].a[ 12] =         0.115697040000;     BAS[ATNO][ 16].d[ 12] =        -1.868456597523;

  // Basis function  18 L = p
  InitBFNGauss(BAS[ATNO][ 17]);
  BAS[ATNO][ 17].l  = 1;
  BAS[ATNO][ 17].ng = 13;
  BAS[ATNO][ 17].a[  0] =      3232.958961400000;     BAS[ATNO][ 17].d[  0] =        -0.025071490702;
  BAS[ATNO][ 17].a[  1] =       765.964426940000;     BAS[ATNO][ 17].d[  1] =        -0.168262799427;
  BAS[ATNO][ 17].a[  2] =       246.339408100000;     BAS[ATNO][ 17].d[  2] =        -0.749778226575;
  BAS[ATNO][ 17].a[  3] =        92.365283040000;     BAS[ATNO][ 17].d[  3] =        -2.080919028938;
  BAS[ATNO][ 17].a[  4] =        37.199509550000;     BAS[ATNO][ 17].d[  4] =        -3.225760353656;
  BAS[ATNO][ 17].a[  5] =        15.172166530000;     BAS[ATNO][ 17].d[  5] =        -1.847806977067;
  BAS[ATNO][ 17].a[  6] =        60.931321700000;     BAS[ATNO][ 17].d[  6] =         5.681816494045;
  BAS[ATNO][ 17].a[  7] =         9.479260060000;     BAS[ATNO][ 17].d[  7] =         3.308636866682;
  BAS[ATNO][ 17].a[  8] =         4.256468630000;     BAS[ATNO][ 17].d[  8] =        -2.186890933054;
  BAS[ATNO][ 17].a[  9] =         1.972931380000;     BAS[ATNO][ 17].d[  9] =         1.220518972763;
  BAS[ATNO][ 17].a[ 10] =         0.763371090000;     BAS[ATNO][ 17].d[ 10] =        -0.547387155946;
  BAS[ATNO][ 17].a[ 11] =         0.309436260000;     BAS[ATNO][ 17].d[ 11] =         0.250512716712;
  BAS[ATNO][ 17].a[ 12] =         0.115697040000;     BAS[ATNO][ 17].d[ 12] =        -0.073491632614;

  // Basis function  19 L = d
  InitBFNGauss(BAS[ATNO][ 18]);
  BAS[ATNO][ 18].l  = 2;
  BAS[ATNO][ 18].ng = 8;
  BAS[ATNO][ 18].a[  0] =       186.417609040000;     BAS[ATNO][ 18].d[  0] =        -0.011024575940;
  BAS[ATNO][ 18].a[  1] =        55.274124350000;     BAS[ATNO][ 18].d[  1] =        -0.075005909623;
  BAS[ATNO][ 18].a[  2] =        20.283219120000;     BAS[ATNO][ 18].d[  2] =        -0.261003535573;
  BAS[ATNO][ 18].a[  3] =         8.088453700000;     BAS[ATNO][ 18].d[  3] =        -0.497007252606;
  BAS[ATNO][ 18].a[  4] =         3.221403390000;     BAS[ATNO][ 18].d[  4] =        -0.523936926330;
  BAS[ATNO][ 18].a[  5] =         1.195217010000;     BAS[ATNO][ 18].d[  5] =         0.539411066907;
  BAS[ATNO][ 18].a[  6] =         0.648000000000;     BAS[ATNO][ 18].d[  6] =        -0.375002956491;
  BAS[ATNO][ 18].a[  7] =         0.251000000000;     BAS[ATNO][ 18].d[  7] =         0.094823822959;

  // Basis function  20 L = d
  InitBFNGauss(BAS[ATNO][ 19]);
  BAS[ATNO][ 19].l  = 2;
  BAS[ATNO][ 19].ng = 8;
  BAS[ATNO][ 19].a[  0] =       186.417609040000;     BAS[ATNO][ 19].d[  0] =        -0.003270051284;
  BAS[ATNO][ 19].a[  1] =        55.274124350000;     BAS[ATNO][ 19].d[  1] =        -0.022247855373;
  BAS[ATNO][ 19].a[  2] =        20.283219120000;     BAS[ATNO][ 19].d[  2] =        -0.077417485374;
  BAS[ATNO][ 19].a[  3] =         8.088453700000;     BAS[ATNO][ 19].d[  3] =        -0.147419657074;
  BAS[ATNO][ 19].a[  4] =         3.221403390000;     BAS[ATNO][ 19].d[  4] =        -0.155407394163;
  BAS[ATNO][ 19].a[  5] =         1.195217010000;     BAS[ATNO][ 19].d[  5] =         1.773965566702;
  BAS[ATNO][ 19].a[  6] =         0.648000000000;     BAS[ATNO][ 19].d[  6] =        -0.921599961222;
  BAS[ATNO][ 19].a[  7] =         0.251000000000;     BAS[ATNO][ 19].d[  7] =         0.207265374984;

  // Basis function  21 L = d
  InitBFNGauss(BAS[ATNO][ 20]);
  BAS[ATNO][ 20].l  = 2;
  BAS[ATNO][ 20].ng = 8;
  BAS[ATNO][ 20].a[  0] =       186.417609040000;     BAS[ATNO][ 20].d[  0] =         0.001477493091;
  BAS[ATNO][ 20].a[  1] =        55.274124350000;     BAS[ATNO][ 20].d[  1] =         0.010052152016;
  BAS[ATNO][ 20].a[  2] =        20.283219120000;     BAS[ATNO][ 20].d[  2] =         0.034979206697;
  BAS[ATNO][ 20].a[  3] =         8.088453700000;     BAS[ATNO][ 20].d[  3] =         0.066607984374;
  BAS[ATNO][ 20].a[  4] =         3.221403390000;     BAS[ATNO][ 20].d[  4] =         0.070217048984;
  BAS[ATNO][ 20].a[  5] =         1.195217010000;     BAS[ATNO][ 20].d[  5] =        -1.558716826028;
  BAS[ATNO][ 20].a[  6] =         0.648000000000;     BAS[ATNO][ 20].d[  6] =         2.240339861045;
  BAS[ATNO][ 20].a[  7] =         0.251000000000;     BAS[ATNO][ 20].d[  7] =        -0.294362801686;

  // Basis function  22 L = d
  InitBFNGauss(BAS[ATNO][ 21]);
  BAS[ATNO][ 21].l  = 2;
  BAS[ATNO][ 21].ng = 8;
  BAS[ATNO][ 21].a[  0] =       186.417609040000;     BAS[ATNO][ 21].d[  0] =         0.000667185770;
  BAS[ATNO][ 21].a[  1] =        55.274124350000;     BAS[ATNO][ 21].d[  1] =         0.004539210924;
  BAS[ATNO][ 21].a[  2] =        20.283219120000;     BAS[ATNO][ 21].d[  2] =         0.015795423398;
  BAS[ATNO][ 21].a[  3] =         8.088453700000;     BAS[ATNO][ 21].d[  3] =         0.030077906682;
  BAS[ATNO][ 21].a[  4] =         3.221403390000;     BAS[ATNO][ 21].d[  4] =         0.031707637856;
  BAS[ATNO][ 21].a[  5] =         1.195217010000;     BAS[ATNO][ 21].d[  5] =        -0.880951110657;
  BAS[ATNO][ 21].a[  6] =         0.648000000000;     BAS[ATNO][ 21].d[  6] =         1.771409464755;
  BAS[ATNO][ 21].a[  7] =         0.251000000000;     BAS[ATNO][ 21].d[  7] =        -1.600250152429;

  // Basis function  23 L = f
  InitBFNGauss(BAS[ATNO][ 22]);
  BAS[ATNO][ 22].l  = 3;
  BAS[ATNO][ 22].ng = 1;
  BAS[ATNO][ 22].a[  0] =         0.628000000000;     BAS[ATNO][ 22].d[  0] =         1.000000000000;

-------
TIMINGS
-------

Total SCF time: 0 days 0 hours 0 min 2 sec 

Total time                  ....       2.146 sec
Sum of individual times     ....       1.971 sec  ( 91.8%)

Fock matrix formation       ....       1.238 sec  ( 57.7%)
  XC integration            ....       0.040 sec  (  3.2% of F)
    Basis function eval.    ....       0.006 sec  ( 15.7% of XC)
    Density eval.           ....       0.003 sec  (  6.9% of XC)
    XC-Functional eval.     ....       0.003 sec  (  7.2% of XC)
    XC-Potential eval.      ....       0.004 sec  (  9.9% of XC)
Diagonalization             ....       0.003 sec  (  0.1%)
Density matrix formation    ....       0.001 sec  (  0.0%)
Population analysis         ....       0.001 sec  (  0.0%)
Initial guess               ....       0.071 sec  (  3.3%)
Orbital Transformation      ....       0.000 sec  (  0.0%)
Orbital Orthonormalization  ....       0.000 sec  (  0.0%)
DIIS solution               ....       0.000 sec  (  0.0%)
SOSCF solution              ....       0.001 sec  (  0.0%)
Grid generation             ....       0.655 sec  ( 30.5%)

-------------------------   --------------------
FINAL SINGLE POINT ENERGY     -1316.296633448106
-------------------------   --------------------


                            ***************************************
                            *     ORCA property calculations      *
                            ***************************************

                                    ---------------------
                                    Active property flags
                                    ---------------------
   (+) Dipole Moment


------------------------------------------------------------------------------
                       ORCA ELECTRIC PROPERTIES CALCULATION
------------------------------------------------------------------------------

Dipole Moment Calculation                       ... on
Quadrupole Moment Calculation                   ... off
Polarizability Calculation                      ... off
GBWName                                         ... Kr_zora-def2-tzvp_137.035989_.gbw
Electron density file                           ... Kr_zora-def2-tzvp_137.035989_.scfp
The origin for moment calculation is the CENTER OF MASS  = ( 0.000000,  0.000000  0.000000)

-------------
DIPOLE MOMENT
-------------
                                X             Y             Z
Electronic contribution:      0.00000       0.00000       0.00000
Nuclear contribution   :      0.00000       0.00000       0.00000
                        -----------------------------------------
Total Dipole Moment    :      0.00000       0.00000       0.00000
                        -----------------------------------------
Magnitude (a.u.)       :      0.00000
Magnitude (Debye)      :      0.00000



--------------------
Rotational spectrum 
--------------------
 
Rotational constants in cm-1:     0.000000     0.000000     0.000000 
Rotational constants in MHz :     0.000000     0.000000     0.000000 

 Dipole components along the rotational axes: 
x,y,z [a.u.] :     0.000000     0.000000     0.000000 
x,y,z [Debye]:     0.000000     0.000000     0.000000 

 

Timings for individual modules:

Sum of individual times         ...        3.361 sec (=   0.056 min)
GTO integral calculation        ...        0.483 sec (=   0.008 min)  14.4 %
Relativistic integrals          ...        0.465 sec (=   0.008 min)  13.8 %
SCF iterations                  ...        2.414 sec (=   0.040 min)  71.8 %
                             ****ORCA TERMINATED NORMALLY****
TOTAL RUN TIME: 0 days 0 hours 0 minutes 3 seconds 670 msec
