
                                 *****************
                                 * O   R   C   A *
                                 *****************

           --- An Ab Initio, DFT and Semiempirical electronic structure package ---

                  #######################################################
                  #                        -***-                        #
                  #          Department of theory and spectroscopy      #
                  #               Directorship: Frank Neese             #
                  #        Max Planck Institute fuer Kohlenforschung    #
                  #                Kaiser Wilhelm Platz 1               #
                  #                 D-45470 Muelheim/Ruhr               #
                  #                      Germany                        #
                  #                                                     #
                  #                  All rights reserved                #
                  #                        -***-                        #
                  #######################################################


                         Program Version 4.2.1 -  RELEASE  -


 With contributions from (in alphabetic order):
   Daniel Aravena         : Magnetic Suceptibility
   Michael Atanasov       : Ab Initio Ligand Field Theory (pilot matlab implementation)
   Alexander A. Auer      : GIAO ZORA, VPT2
   Ute Becker             : Parallelization
   Giovanni Bistoni       : ED, misc. LED, open-shell LED, HFLD
   Martin Brehm           : Molecular dynamics
   Dmytro Bykov           : SCF Hessian
   Vijay G. Chilkuri      : MRCI spin determinant printing, contributions to CSF-ICE
   Dipayan Datta          : RHF DLPNO-CCSD density
   Achintya Kumar Dutta   : EOM-CC, STEOM-CC
   Dmitry Ganyushin       : Spin-Orbit,Spin-Spin,Magnetic field MRCI
   Miquel Garcia          : C-PCM Hessian, Gaussian charge scheme
   Yang Guo               : DLPNO-NEVPT2, CIM, IAO-localization
   Andreas Hansen         : Spin unrestricted coupled pair/coupled cluster methods
   Benjamin Helmich-Paris : CASSCF linear response (MC-RPA)
   Lee Huntington         : MR-EOM, pCC
   Robert Izsak           : Overlap fitted RIJCOSX, COSX-SCS-MP3, EOM
   Christian Kollmar      : KDIIS, OOCD, Brueckner-CCSD(T), CCSD density
   Simone Kossmann        : Meta GGA functionals, TD-DFT gradient, OOMP2, MP2 Hessian
   Martin Krupicka        : AUTO-CI
   Lucas Lang             : DCDCAS
   Dagmar Lenk            : GEPOL surface, SMD
   Dimitrios Liakos       : Extrapolation schemes; Compound Job, initial MDCI parallelization
   Dimitrios Manganas     : Further ROCIS development; embedding schemes
   Dimitrios Pantazis     : SARC Basis sets
   Taras Petrenko         : DFT Hessian,TD-DFT gradient, ASA, ECA, R-Raman, ABS, FL, XAS/XES, NRVS
   Peter Pinski           : DLPNO-MP2, DLPNO-MP2 Gradient
   Christoph Reimann      : Effective Core Potentials
   Marius Retegan         : Local ZFS, SOC
   Christoph Riplinger    : Optimizer, TS searches, QM/MM, DLPNO-CCSD(T), (RO)-DLPNO pert. Triples
   Tobias Risthaus        : Range-separated hybrids, TD-DFT gradient, RPA, STAB
   Michael Roemelt        : Original ROCIS implementation
   Masaaki Saitow         : Open-shell DLPNO-CCSD energy and density
   Barbara Sandhoefer     : DKH picture change effects
   Avijit Sen             : IP-ROCIS
   Kantharuban Sivalingam : CASSCF convergence, NEVPT2, FIC-MRCI
   Bernardo de Souza      : ESD, SOC TD-DFT
   Georgi Stoychev        : AutoAux, RI-MP2 NMR
   Willem Van den Heuvel  : Paramagnetic NMR
   Boris Wezisla          : Elementary symmetry handling
   Frank Wennmohs         : Technical directorship


 We gratefully acknowledge several colleagues who have allowed us to
 interface, adapt or use parts of their codes:
   Stefan Grimme, W. Hujo, H. Kruse,             : VdW corrections, initial TS optimization,
                  C. Bannwarth                     DFT functionals, gCP, sTDA/sTD-DF
   Ed Valeev, F. Pavosevic, A. Kumar             : LibInt (2-el integral package), F12 methods
   Garnet Chan, S. Sharma, J. Yang, R. Olivares  : DMRG
   Ulf Ekstrom                                   : XCFun DFT Library
   Mihaly Kallay                                 : mrcc  (arbitrary order and MRCC methods)
   Andreas Klamt, Michael Diedenhofen            : otool_cosmo (COSMO solvation model)
   Jiri Pittner, Ondrej Demel                    : Mk-CCSD
   Frank Weinhold                                : gennbo (NPA and NBO analysis)
   Christopher J. Cramer and Donald G. Truhlar   : smd solvation model
   Lars Goerigk                                  : TD-DFT with DH, B97 family of functionals
   V. Asgeirsson, H. Jonsson                     : NEB implementation
   FAccTs GmbH                                   : IRC, NEB, NEB-TS, Multilevel, MM, QM/MM, CI optimization
   S Lehtola, MJT Oliveira, MAL Marques          : LibXC Library


 Your calculation uses the libint2 library for the computation of 2-el integrals
 For citations please refer to: http://libint.valeyev.net

 Your ORCA version has been built with support for libXC version: 4.2.3
 For citations please refer to: https://tddft.org/programs/libxc/

 This ORCA versions uses:
   CBLAS   interface :  Fast vector & matrix operations
   LAPACKE interface :  Fast linear algebra routines
   SCALAPACK package :  Parallel linear algebra routines


----- Orbital basis set information -----
Your calculation utilizes the basis: ANO-RCC-QZP
   H, He:       P.-O. Widmark, P.-A. Malmqvist, and B. O. Roos, Theor. Chim. Acta 77, 291 (1990).
   s block:     B. O. Roos, V. Veryazov and P.-O. Widmark, Theor. Chem. Acc. 111, 345 (2004).
   p block:     B. O. Roos, R. Lindh, P.-A. Malmqvist, V. Veryazov, and P.-O. Widmark, J. Phys. Chem. A 108, 2851 (2004).
   d block:     B. O. Roos, R. Lindh, P.-A. Malmqvist, V. Veryazov, and P.-O. Widmark, J. Phys. Chem. A 109, 6575 (2005).
   actinides:   B. O. Roos, R. Lindh, P.-A. Malmqvist, V. Veryazov, and P.-O. Widmark, Chem. Phys. Letters 409, 295 (2005).
   lanthanides: B. O. Roos, R. Lindh, P.-A. Malmqvist, V. Veryazov, P.-O. Widmark and A. C. Borin, J. Phys. Chem. A 112, 11431 (2008).

================================================================================
                                        WARNINGS
                       Please study these warnings very carefully!
================================================================================


INFO   : the flag for use of LIBINT has been found!

================================================================================
                                       INPUT FILE
================================================================================
NAME = Ne_ano-rcc-qzp_274.071978_.inp
|  1> ! LDA ano-rcc-qzp nori grid5 finalgrid6 verytightscf
|  2> %Pal NProcs 18 End
|  3> 
|  4> % REL
|  5>   Method ZORA
|  6>   ModelPot 1, 0, 0, 0
|  7>   velit 274.071978
|  8> END
|  9> 
| 10> *xyz 8 1
| 11> Ne 0.0 0.0 0.0
| 12> **                         ****END OF INPUT****
================================================================================

                       ****************************
                       * Single Point Calculation *
                       ****************************

---------------------------------
CARTESIAN COORDINATES (ANGSTROEM)
---------------------------------
  Ne     0.000000    0.000000    0.000000

----------------------------
CARTESIAN COORDINATES (A.U.)
----------------------------
  NO LB      ZA    FRAG     MASS         X           Y           Z
   0 Ne   10.0000    0    20.179    0.000000    0.000000    0.000000

--------------------------------
INTERNAL COORDINATES (ANGSTROEM)
--------------------------------
 Ne     0   0   0     0.000000000000     0.00000000     0.00000000

---------------------------
INTERNAL COORDINATES (A.U.)
---------------------------
 Ne     0   0   0     0.000000000000     0.00000000     0.00000000

---------------------
BASIS SET INFORMATION
---------------------
There are 1 groups of distinct atoms

 Group   1 Type Ne  : 70s36p12d6f contracted to 5s4p3d2f pattern {1414141414/9999/444/33}

Atom   0Ne   basis set group =>   1


           ************************************************************
           *        Program running with 18 parallel MPI-processes    *
           *              working on a common directory               *
           ************************************************************


------------------------------------------------------------------------------
                       ORCA GTO INTEGRAL CALCULATION
                     -- ANO INTEGRAL GENERATION BRANCH --
------------------------------------------------------------------------------


Gathering ANO information                         ... done
Calculation Information:
Number of atoms                                   ... 1
Number of basis functions                         ... 46
Highest angular momentum                          ... 3
Number of primitive shells                        ... 30
Total number of shells                            ... 14
Maximum number of shells                          ... 14

Getting memory                                    ... done
Making prescreening integrals                     ... done
Gathering atom contracted prescreening            ... done
Making one-electron integrals                     ... done

Timings:

Total time                                        ...    0.1 sec
Prescreening matrix                               ...    0.1 sec
One-electron matrix                               ...    0.0 sec
Two-index integrals + Cholesky                    ...    0.0 sec


           ************************************************************
           *        Program running with 18 parallel MPI-processes    *
           *              working on a common directory               *
           ************************************************************
------------------------------------------------------------------------------
                          ORCA RELATIVISTIC HAMILTONIAN
------------------------------------------------------------------------------

Relativistic Method            ... ZORA(MP)
Treatment of potential         ... Van Wuellen
Nucleus model                  ... Point Nucleus
Speed of light used            ... 274.07197800000000


            *************************************************
            *         ZERO ORDER REGULAR APPROXIMATION      *
            *                     ZORA(MP)                  *
            *            Programmed by FN according to      *
            *                   C. van Wuellen              *
            *       J. Chem. Phys. (1998) vol 109, 392-399  *
            *************************************************

Terms included in model potential: +V(e,N)
Basis function cutoff value   ... 1.000000e-12
Loading the fitted atomic densities  (DKH4)  ... done
Calculating the cutoffs                      ... done
Number of fit functions                      ... 11
Setting up the integration grid ... done


           ************************************************************
           *        Program running with 18 parallel MPI-processes    *
           *              working on a common directory               *
           ************************************************************
-------------------------------------------------------------------------------
                                 ORCA SCF
-------------------------------------------------------------------------------

------------
SCF SETTINGS
------------
Hamiltonian:
 Density Functional     Method          .... DFT(GTOs)
 Exchange Functional    Exchange        .... Slater
   X-Alpha parameter    XAlpha          ....  0.666667
 Correlation Functional Correlation     .... VWN-5
 Gradients option       PostSCFGGA      .... off
   Density functional embedding theory  .... OFF

Relativistic Settings:
 Scalar relativistic method             .... ZORA
 Speed of light used       Velit        ....       274.071978
Orbital energies will be scaled


General Settings:
 Integral files         IntName         .... Ne_ano-rcc-qzp_274.071978_
 Hartree-Fock type      HFTyp           .... RHF
 Total Charge           Charge          ....    8
 Multiplicity           Mult            ....    1
 Number of Electrons    NEL             ....    2
 Basis Dimension        Dim             ....   46
 Nuclear Repulsion      ENuc            ....      0.0000000000 Eh

Convergence Acceleration:
 DIIS                   CNVDIIS         .... on
   Start iteration      DIISMaxIt       ....    12
   Startup error        DIISStart       ....  0.200000
   # of expansion vecs  DIISMaxEq       ....     5
   Bias factor          DIISBfac        ....   1.050
   Max. coefficient     DIISMaxC        ....  10.000
 Newton-Raphson         CNVNR           .... off
 SOSCF                  CNVSOSCF        .... on
   Start iteration      SOSCFMaxIt      ....   150
   Startup grad/error   SOSCFStart      ....  0.003300
 Level Shifting         CNVShift        .... on
   Level shift para.    LevelShift      ....    0.2500
   Turn off err/grad.   ShiftErr        ....    0.0010
 Zerner damping         CNVZerner       .... off
 Static damping         CNVDamp         .... on
   Fraction old density DampFac         ....    0.7000
   Max. Damping (<1)    DampMax         ....    0.9800
   Min. Damping (>=0)   DampMin         ....    0.0000
   Turn off err/grad.   DampErr         ....    0.1000
 Fernandez-Rico         CNVRico         .... off

SCF Procedure:
 Maximum # iterations   MaxIter         ....   125
 SCF integral mode      SCFMode         .... Direct
   Integral package                     .... LIBINT
 Reset frequency        DirectResetFreq ....    20
 Integral Threshold     Thresh          ....  1.000e-12 Eh
 Primitive CutOff       TCut            ....  1.000e-14 Eh

Convergence Tolerance:
 Convergence Check Mode ConvCheckMode   .... Total+1el-Energy
 Convergence forced     ConvForced      .... 0
 Energy Change          TolE            ....  1.000e-09 Eh
 1-El. energy change                    ....  1.000e-06 Eh
 Orbital Gradient       TolG            ....  2.000e-06
 Orbital Rotation angle TolX            ....  2.000e-06
 DIIS Error             TolErr          ....  1.000e-08


Diagonalization of the overlap matrix:
Smallest eigenvalue                        ... 1.000e+00
Time for diagonalization                   ...    0.001 sec
Threshold for overlap eigenvalues          ... 1.000e-08
Number of eigenvalues below threshold      ... 0
Time for construction of square roots      ...    0.001 sec
Total time needed                          ...    0.002 sec

-------------------
DFT GRID GENERATION
-------------------

General Integration Accuracy     IntAcc      ...  5.010
Radial Grid Type                 RadialGrid  ... Gauss-Chebyshev
Angular Grid (max. acc.)         AngularGrid ... Lebedev-434
Angular grid pruning method      GridPruning ... 3 (G Style)
Weight generation scheme         WeightScheme... Becke
Basis function cutoff            BFCut       ...    1.0000e-12
Integration weight cutoff        WCut        ...    1.0000e-14
Grids for H and He will be reduced by one unit

# of grid points (after initial pruning)     ...  10818 (   0.0 sec)
# of grid points (after weights+screening)   ...  10818 (   0.0 sec)
Grid point division into batches done        ...    0.1 sec
Reduced shell lists constructed in    0.1 sec

Total number of grid points                  ...    10818
Total number of batches                      ...      170
Average number of points per batch           ...       63
Average number of grid points per atom       ...    10818
Average number of shells per batch           ...     5.82 (41.56%)
Average number of basis functions per batch  ...    13.09 (28.46%)
Average number of large shells per batch     ...     3.45 (59.38%)
Average number of large basis fcns per batch ...     8.91 (68.06%)
Maximum spatial batch extension              ...  16.29, 16.29, 16.29 au
Average spatial batch extension              ...   0.85,  0.86,  0.85 au

Time for grid setup =    0.129 sec

------------------------------
INITIAL GUESS: MODEL POTENTIAL
------------------------------
Loading ZORA relativistic densities                ... done
Calculating cut-offs                               ... done
Setting up the integral package                    ... done
Initializing the effective Hamiltonian             ... done
Starting the Coulomb interaction                   ... done (   0.0 sec)
Reading the grid                                   ... done
Mapping shells                                     ... done
Starting the XC term evaluation                    ... done (   0.0 sec)
  promolecular density results
     # of electrons  =     10.000000334
     EX              =    -11.053709298
     EC              =     -0.746638772
     EX+EC           =    -11.800348070
Transforming the Hamiltonian                       ... done (   0.0 sec)
Diagonalizing the Hamiltonian                      ... done (   0.0 sec)
Back transforming the eigenvectors                 ... done (   0.0 sec)
Now organizing SCF variables                       ... done
                      ------------------
                      INITIAL GUESS DONE (   0.2 sec)
                      ------------------
--------------
SCF ITERATIONS
--------------
ITER       Energy         Delta-E        Max-DP      RMS-DP      [F,P]     Damp
               ***  Starting incremental Fock matrix formation  ***
  0    -93.2430629926   0.000000000000 0.00528826  0.00017025  0.5570931 0.7000
                      *** Initiating the SOSCF procedure ***
                      *** Re-Reading the Fockian *** 
                      *** Removing any level shift *** 
ITER      Energy       Delta-E        Grad      Rot      Max-DP    RMS-DP
  1    -93.24684719  -0.0037842004  0.003133  0.003133  0.012330  0.000395
               *** Restarting incremental Fock matrix formation ***
  2    -93.25535489  -0.0085076995  0.010350  0.000222  0.000349  0.000014
  3    -93.25536341  -0.0000085181  0.000397  0.000008  0.000013  0.000001
                  ***Gradient check signals convergence***
              ***Rediagonalizing the Fockian in SOSCF/NRSCF***

               *****************************************************
               *                     SUCCESS                       *
               *           SCF CONVERGED AFTER   4 CYCLES          *
               *****************************************************

Setting up the final grid:

General Integration Accuracy     IntAcc      ...  5.340
Radial Grid Type                 RadialGrid  ... Gauss-Chebyshev
Angular Grid (max. acc.)         AngularGrid ... Lebedev-590
Angular grid pruning method      GridPruning ... 3 (G Style)
Weight generation scheme         WeightScheme... Becke
Basis function cutoff            BFCut       ...    1.0000e-12
Integration weight cutoff        WCut        ...    1.0000e-14
Grids for H and He will be reduced by one unit

# of grid points (after initial pruning)     ...  16840 (   0.0 sec)
# of grid points (after weights+screening)   ...  16840 (   0.0 sec)
Grid point division into batches done        ...    0.2 sec
Reduced shell lists constructed in    0.2 sec

Total number of grid points                  ...    16840
Total number of batches                      ...      264
Average number of points per batch           ...       63
Average number of grid points per atom       ...    16840
Average number of shells per batch           ...     1.69 (12.05%)
Average number of basis functions per batch  ...     5.06 (11.01%)
Average number of large shells per batch     ...     1.69 (100.00%)
Average number of large basis fcns per batch ...     5.06 (100.00%)
Maximum spatial batch extension              ...  16.63, 16.63, 16.63 au
Average spatial batch extension              ...   0.74,  0.74,  0.69 au

Final grid set up in    0.2 sec
Final integration                            ... done (   0.0 sec)
Change in XC energy                          ...    -0.000000700
Integrated number of electrons               ...     2.000000062
Previous integrated no of electrons          ...     1.999999970

----------------
TOTAL SCF ENERGY
----------------

Total Energy       :          -93.25536412 Eh           -2537.60747 eV

Components:
Nuclear Repulsion  :            0.00000000 Eh               0.00000 eV
Electronic Energy  :          -93.25536412 Eh           -2537.60747 eV
One Electron Energy:          -99.90633647 Eh           -2718.58963 eV
Two Electron Energy:            6.65097235 Eh             180.98216 eV

Virial components:
Potential Energy   :         -187.02130182 Eh           -5089.10835 eV
Kinetic Energy     :           93.76593770 Eh            2551.50088 eV
Virial Ratio       :            1.99455481


DFT components:
N(Alpha)           :        1.000000030759 electrons
N(Beta)            :        1.000000030759 electrons
N(Total)           :        2.000000061517 electrons
E(X)               :       -5.156417084471 Eh       
E(C)               :       -0.202754117125 Eh       
E(XC)              :       -5.359171201596 Eh       
DFET-embed. en.    :        0.000000000000 Eh       

---------------
SCF CONVERGENCE
---------------

  Last Energy change         ...   -1.2763e-08  Tolerance :   1.0000e-09
  Last MAX-Density change    ...    5.9058e-10  Tolerance :   1.0000e-08
  Last RMS-Density change    ...    1.7354e-11  Tolerance :   1.0000e-09
  Last Orbital Gradient      ...    1.8273e-08  Tolerance :   2.0000e-06
  Last Orbital Rotation      ...    3.6325e-10  Tolerance :   2.0000e-06

             **** THE GBW FILE WAS UPDATED (Ne_ano-rcc-qzp_274.071978_.gbw) ****
             **** DENSITY FILE WAS UPDATED (Ne_ano-rcc-qzp_274.071978_.scfp) ****
             **** ENERGY FILE WAS UPDATED (Ne_ano-rcc-qzp_274.071978_.en.tmp) ****
             **** THE GBW FILE WAS UPDATED (Ne_ano-rcc-qzp_274.071978_.gbw) ****
             **** DENSITY FILE WAS UPDATED (Ne_ano-rcc-qzp_274.071978_.scfp) ****
----------------
ORBITAL ENERGIES
----------------

  NO   OCC          E(Eh)            E(eV) 
   0   2.0000     -41.491220     -1129.0335 
   1   0.0000      -9.052056      -246.3190 
   2   0.0000      -8.615481      -234.4392 
   3   0.0000      -8.615481      -234.4392 
   4   0.0000      -8.615481      -234.4392 
   5   0.0000      -3.831171      -104.2515 
   6   0.0000      -3.693730      -100.5115 
   7   0.0000      -3.693730      -100.5115 
   8   0.0000      -3.693730      -100.5115 
   9   0.0000      -3.599082       -97.9360 
  10   0.0000      -3.599082       -97.9360 
  11   0.0000      -3.599082       -97.9360 
  12   0.0000      -3.599082       -97.9360 
  13   0.0000      -3.599082       -97.9360 
  14   0.0000      -1.954807       -53.1930 
  15   0.0000      -1.954807       -53.1930 
  16   0.0000      -1.954807       -53.1930 
  17   0.0000      -1.613152       -43.8961 
  18   0.0000      -1.073532       -29.2123 
  19   0.0000      -1.073532       -29.2123 
  20   0.0000      -1.073532       -29.2123 
  21   0.0000      -1.073532       -29.2123 
  22   0.0000      -1.073532       -29.2123 
  23   0.0000      -1.073532       -29.2123 
  24   0.0000      -1.073532       -29.2123 
  25   0.0000      -0.962873       -26.2011 
  26   0.0000      -0.962873       -26.2011 
  27   0.0000      -0.962873       -26.2011 
  28   0.0000      -0.962873       -26.2011 
  29   0.0000      -0.962873       -26.2011 
  30   0.0000       4.041585       109.9771 
  31   0.0000       4.041585       109.9771 
  32   0.0000       4.041585       109.9771 
  33   0.0000       7.251330       197.3187 
  34   0.0000       7.251330       197.3187 
  35   0.0000       7.251330       197.3187 
  36   0.0000       7.251330       197.3187 
  37   0.0000       7.251330       197.3187 
  38   0.0000       7.251330       197.3187 
  39   0.0000       7.251330       197.3187 
  40   0.0000       7.495955       203.9753 
  41   0.0000       8.437529       229.5968 
  42   0.0000       8.437529       229.5968 
  43   0.0000       8.437529       229.5968 
  44   0.0000       8.437529       229.5968 
  45   0.0000       8.437529       229.5968 

                    ********************************
                    * MULLIKEN POPULATION ANALYSIS *
                    ********************************

-----------------------
MULLIKEN ATOMIC CHARGES
-----------------------
   0 Ne:    8.000000
Sum of atomic charges:    8.0000000

--------------------------------
MULLIKEN REDUCED ORBITAL CHARGES
--------------------------------
  0 Nes       :     2.000000  s :     2.000000
      pz      :     0.000000  p :     0.000000
      px      :     0.000000
      py      :     0.000000
      dz2     :     0.000000  d :     0.000000
      dxz     :     0.000000
      dyz     :     0.000000
      dx2y2   :     0.000000
      dxy     :     0.000000
      f0      :     0.000000  f :     0.000000
      f+1     :     0.000000
      f-1     :     0.000000
      f+2     :     0.000000
      f-2     :     0.000000
      f+3     :     0.000000
      f-3     :     0.000000


                     *******************************
                     * LOEWDIN POPULATION ANALYSIS *
                     *******************************

----------------------
LOEWDIN ATOMIC CHARGES
----------------------
   0 Ne:    8.000000

-------------------------------
LOEWDIN REDUCED ORBITAL CHARGES
-------------------------------
  0 Nes       :     2.000000  s :     2.000000
      pz      :     0.000000  p :     0.000000
      px      :     0.000000
      py      :     0.000000
      dz2     :     0.000000  d :     0.000000
      dxz     :     0.000000
      dyz     :     0.000000
      dx2y2   :     0.000000
      dxy     :     0.000000
      f0      :     0.000000  f :     0.000000
      f+1     :     0.000000
      f-1     :     0.000000
      f+2     :     0.000000
      f-2     :     0.000000
      f+3     :     0.000000
      f-3     :     0.000000


                      *****************************
                      * MAYER POPULATION ANALYSIS *
                      *****************************

  NA   - Mulliken gross atomic population
  ZA   - Total nuclear charge
  QA   - Mulliken gross atomic charge
  VA   - Mayer's total valence
  BVA  - Mayer's bonded valence
  FA   - Mayer's free valence

  ATOM       NA         ZA         QA         VA         BVA        FA
  0 Ne     2.0000    10.0000     8.0000    -0.0000     0.0000    -0.0000

  Mayer bond orders larger than 0.100000


--------------------------
ATOM BASIS FOR ELEMENT Ne
--------------------------
 NewGTO Ne
 S 70
    1     166165.079999999987         0.000153217623
    2      23107.524000000001         0.000635240145
    3       5060.153900000000         0.002574940051
    4       1384.612300000000         0.010128692860
    5        436.512580000000         0.035833654063
    6        153.471480000000         0.105524632850
    7         59.389087000000         0.238259073557
    8         24.861967000000         0.369250881300
    9         11.015704000000         0.305194865089
   10          4.965175000000         0.083723831076
   11          1.936503000000         0.003641483505
   12          0.765728000000         0.000957465146
   13          0.295538000000         0.000034219469
   14          0.103438000000         0.000025849599
   15     166165.079999999987         0.000000184546
   16      23107.524000000001         0.000000765047
   17       5060.153900000000         0.000003113205
   18       1384.612300000000         0.000012270498
   19        436.512580000000         0.000044248786
   20        153.471480000000         0.000134600116
   21         59.389087000000         0.000335103394
   22         24.861967000000         0.000626147760
   23         11.015704000000         0.000804329149
   24          4.965175000000         0.000037862416
   25          1.936503000000        -0.001983870735
   26          0.765728000000        -0.002811497520
   27          0.295538000000        -0.000938277636
   28          0.103438000000         0.000000957890
   29     166165.079999999987         0.000000097171
   30      23107.524000000001         0.000000399658
   31       5060.153900000000         0.000001655393
   32       1384.612300000000         0.000006360386
   33        436.512580000000         0.000023879878
   34        153.471480000000         0.000070029476
   35         59.389087000000         0.000191082726
   36         24.861967000000         0.000336906108
   37         11.015704000000         0.000618272112
   38          4.965175000000        -0.000523949489
   39          1.936503000000        -0.002693144068
   40          0.765728000000         0.000983984506
   41          0.295538000000         0.001729977228
   42          0.103438000000         0.000021872955
   43     166165.079999999987         0.000000016489
   44      23107.524000000001         0.000000064371
   45       5060.153900000000         0.000000297943
   46       1384.612300000000         0.000000957705
   47        436.512580000000         0.000004582519
   48        153.471480000000         0.000009962633
   49         59.389087000000         0.000042474417
   50         24.861967000000         0.000038434077
   51         11.015704000000         0.000212506743
   52          4.965175000000        -0.000520901728
   53          1.936503000000        -0.000025509026
   54          0.765728000000         0.000662354828
   55          0.295538000000        -0.000465297622
   56          0.103438000000        -0.000026195814
   57     166165.079999999987        -0.000000062648
   58      23107.524000000001        -0.000000271996
   59       5060.153900000000        -0.000001012540
   60       1384.612300000000        -0.000004589980
   61        436.512580000000        -0.000014279058
   62        153.471480000000        -0.000057625369
   63         59.389087000000        -0.000118213960
   64         24.861967000000        -0.000403924866
   65         11.015704000000        -0.000405590561
   66          4.965175000000         0.003185926215
   67          1.936503000000        -0.004575933794
   68          0.765728000000         0.003371843185
   69          0.295538000000        -0.000886697772
   70          0.103438000000        -0.000403389638
 S 68
    1     166165.079999999987        -0.000000839868
    2      23107.524000000001        -0.000003482094
    3       5060.153900000000        -0.000014114635
    4       1384.612300000000        -0.000055520828
    5        436.512580000000        -0.000196423584
    6        153.471480000000        -0.000578437425
    7         59.389087000000        -0.001306026482
    8         24.861967000000        -0.002024063229
    9         11.015704000000        -0.001672937656
   10          4.965175000000        -0.000458935473
   11          1.936503000000        -0.000019960935
   12          0.765728000000        -0.000005248383
   13     166165.079999999987         0.000034601792
   14      23107.524000000001         0.000143443777
   15       5060.153900000000         0.000583715537
   16       1384.612300000000         0.002300677701
   17        436.512580000000         0.008296500494
   18        153.471480000000         0.025237074966
   19         59.389087000000         0.062830774234
   20         24.861967000000         0.117400626735
   21         11.015704000000         0.150809045768
   22          4.965175000000         0.007099077407
   23          1.936503000000        -0.371969178261
   24          0.765728000000        -0.527146453651
   25          0.295538000000        -0.175923942641
   26          0.103438000000         0.000179601132
   27     166165.079999999987         0.000014383096
   28      23107.524000000001         0.000059156741
   29       5060.153900000000         0.000245028908
   30       1384.612300000000         0.000941455353
   31        436.512580000000         0.003534665629
   32        153.471480000000         0.010365663720
   33         59.389087000000         0.028283794117
   34         24.861967000000         0.049868364364
   35         11.015704000000         0.091515761289
   36          4.965175000000        -0.077554260496
   37          1.936503000000        -0.398635366147
   38          0.765728000000         0.145647991292
   39          0.295538000000         0.256068776197
   40          0.103438000000         0.003237603847
   41     166165.079999999987         0.000001954177
   42      23107.524000000001         0.000007628913
   43       5060.153900000000         0.000035310459
   44       1384.612300000000         0.000113501584
   45        436.512580000000         0.000543093063
   46        153.471480000000         0.001180712415
   47         59.389087000000         0.005033817220
   48         24.861967000000         0.004554979924
   49         11.015704000000         0.025185044644
   50          4.965175000000        -0.061734197804
   51          1.936503000000        -0.003023179232
   52          0.765728000000         0.078498384155
   53          0.295538000000        -0.055144327425
   54          0.103438000000        -0.003104573189
   55     166165.079999999987        -0.000000263690
   56      23107.524000000001        -0.000001144860
   57       5060.153900000000        -0.000004261883
   58       1384.612300000000        -0.000019319696
   59        436.512580000000        -0.000060102016
   60        153.471480000000        -0.000242551072
   61         59.389087000000        -0.000497574645
   62         24.861967000000        -0.001700161071
   63         11.015704000000        -0.001707172149
   64          4.965175000000         0.013409889257
   65          1.936503000000        -0.019260573311
   66          0.765728000000         0.014192432798
   67          0.295538000000        -0.003732201605
   68          0.103438000000        -0.001697908242
 S 68
    1     166165.079999999987         0.000000063779
    2      23107.524000000001         0.000000264426
    3       5060.153900000000         0.000001071847
    4       1384.612300000000         0.000004216179
    5        436.512580000000         0.000014916148
    6        153.471480000000         0.000043925776
    7         59.389087000000         0.000099177931
    8         24.861967000000         0.000153704696
    9         11.015704000000         0.000127040682
   10          4.965175000000         0.000034850955
   11          1.936503000000         0.000001515807
   12          0.765728000000         0.000000398555
   13     166165.079999999987         0.000011310822
   14      23107.524000000001         0.000046889681
   15       5060.153900000000         0.000190808106
   16       1384.612300000000         0.000752058026
   17        436.512580000000         0.002712005154
   18        153.471480000000         0.008249632169
   19         59.389087000000         0.020538464819
   20         24.861967000000         0.038376554664
   21         11.015704000000         0.049297280174
   22          4.965175000000         0.002320584990
   23          1.936503000000        -0.121591305769
   24          0.765728000000        -0.172316496573
   25          0.295538000000        -0.057506974104
   26          0.103438000000         0.000058708994
   27     166165.079999999987        -0.000043188732
   28      23107.524000000001        -0.000177632448
   29       5060.153900000000        -0.000735758665
   30       1384.612300000000        -0.002826947809
   31        436.512580000000        -0.010613689988
   32        153.471480000000        -0.031125416888
   33         59.389087000000        -0.084928944911
   34         24.861967000000        -0.149741846949
   35         11.015704000000        -0.274798247252
   36          4.965175000000         0.232875458292
   37          1.936503000000         1.196999274952
   38          0.765728000000        -0.437343383903
   39          0.295538000000        -0.768908545191
   40          0.103438000000        -0.009721690012
   41     166165.079999999987         0.000005787689
   42      23107.524000000001         0.000022594560
   43       5060.153900000000         0.000104579025
   44       1384.612300000000         0.000336157760
   45        436.512580000000         0.001608479292
   46        153.471480000000         0.003496917194
   47         59.389087000000         0.014908661725
   48         24.861967000000         0.013490488804
   49         11.015704000000         0.074590573057
   50          4.965175000000        -0.182838238186
   51          1.936503000000        -0.008953753094
   52          0.765728000000         0.232488746433
   53          0.295538000000        -0.163321012196
   54          0.103438000000        -0.009194817660
   55     166165.079999999987         0.000000290183
   56      23107.524000000001         0.000001259886
   57       5060.153900000000         0.000004690081
   58       1384.612300000000         0.000021260777
   59        436.512580000000         0.000066140564
   60        153.471480000000         0.000266920574
   61         59.389087000000         0.000547566781
   62         24.861967000000         0.001870979026
   63         11.015704000000         0.001878694519
   64          4.965175000000        -0.014757202694
   65          1.936503000000         0.021195714515
   66          0.765728000000        -0.015618369662
   67          0.295538000000         0.004107181985
   68          0.103438000000         0.001868499852
 S 68
    1     166165.079999999987         0.000000075533
    2      23107.524000000001         0.000000313160
    3       5060.153900000000         0.000001269392
    4       1384.612300000000         0.000004993234
    5        436.512580000000         0.000017665245
    6        153.471480000000         0.000052021445
    7         59.389087000000         0.000117456757
    8         24.861967000000         0.000182032988
    9         11.015704000000         0.000150454707
   10          4.965175000000         0.000041274104
   11          1.936503000000         0.000001795175
   12          0.765728000000         0.000000472010
   13     166165.079999999987         0.000002187016
   14      23107.524000000001         0.000009066402
   15       5060.153900000000         0.000036893897
   16       1384.612300000000         0.000145414949
   17        436.512580000000         0.000524382532
   18        153.471480000000         0.001595116070
   19         59.389087000000         0.003971235883
   20         24.861967000000         0.007420337999
   21         11.015704000000         0.009531926056
   22          4.965175000000         0.000448699085
   23          1.936503000000        -0.023510411355
   24          0.765728000000        -0.033318432532
   25          0.295538000000        -0.011119319827
   26          0.103438000000         0.000011351738
   27     166165.079999999987        -0.000003491783
   28      23107.524000000001        -0.000014361476
   29       5060.153900000000        -0.000059485643
   30       1384.612300000000        -0.000228557019
   31        436.512580000000        -0.000858110412
   32        153.471480000000        -0.002516471117
   33         59.389087000000        -0.006866453794
   34         24.861967000000        -0.012106537697
   35         11.015704000000        -0.022217271972
   36          4.965175000000         0.018827839858
   37          1.936503000000         0.096776666912
   38          0.765728000000        -0.035358947892
   39          0.295538000000        -0.062165790507
   40          0.103438000000        -0.000785992754
   41     166165.079999999987        -0.000051804067
   42      23107.524000000001        -0.000202237908
   43       5060.153900000000        -0.000936059079
   44       1384.612300000000        -0.003008858839
   45        436.512580000000        -0.014397071001
   46        153.471480000000        -0.031299977162
   47         59.389087000000        -0.133443471973
   48         24.861967000000        -0.120749782764
   49         11.015704000000        -0.667640411243
   50          4.965175000000         1.636536515676
   51          1.936503000000         0.080142666195
   52          0.765728000000        -2.080945029859
   53          0.295538000000         1.461843008813
   54          0.103438000000         0.082300371110
   55     166165.079999999987         0.000027466735
   56      23107.524000000001         0.000119252113
   57       5060.153900000000         0.000443930753
   58       1384.612300000000         0.002012398539
   59        436.512580000000         0.006260409665
   60        153.471480000000         0.025264860762
   61         59.389087000000         0.051828895273
   62         24.861967000000         0.177093971576
   63         11.015704000000         0.177824266907
   64          4.965175000000        -1.396815035509
   65          1.936503000000         2.006240161923
   66          0.765728000000        -1.478327161680
   67          0.295538000000         0.388757521927
   68          0.103438000000         0.176859310034
 S 68
    1     166165.079999999987        -0.000000116710
    2      23107.524000000001        -0.000000483880
    3       5060.153900000000        -0.000001961401
    4       1384.612300000000        -0.000007715298
    5        436.512580000000        -0.000027295460
    6        153.471480000000        -0.000080380955
    7         59.389087000000        -0.000181488354
    8         24.861967000000        -0.000281268343
    9         11.015704000000        -0.000232475150
   10          4.965175000000        -0.000063774697
   11          1.936503000000        -0.000002773816
   12          0.765728000000        -0.000000729327
   13     166165.079999999987         0.000000868685
   14      23107.524000000001         0.000003601187
   15       5060.153900000000         0.000014654304
   16       1384.612300000000         0.000057759009
   17        436.512580000000         0.000208285430
   18        153.471480000000         0.000633582196
   19         59.389087000000         0.001577380102
   20         24.861967000000         0.002947367988
   21         11.015704000000         0.003786093534
   22          4.965175000000         0.000178223865
   23          1.936503000000        -0.009338366233
   24          0.765728000000        -0.013234125111
   25          0.295538000000        -0.004416608422
   26          0.103438000000         0.000004508925
   27     166165.079999999987        -0.000001798351
   28      23107.524000000001        -0.000007396502
   29       5060.153900000000        -0.000030636522
   30       1384.612300000000        -0.000117712307
   31        436.512580000000        -0.000441947292
   32        153.471480000000        -0.001296042539
   33         59.389087000000        -0.003536387184
   34         24.861967000000        -0.006235155153
   35         11.015704000000        -0.011442424027
   36          4.965175000000         0.009696785791
   37          1.936503000000         0.049842287573
   38          0.765728000000        -0.018210700010
   39          0.295538000000        -0.032016862190
   40          0.103438000000        -0.000404804981
   41     166165.079999999987        -0.000022779566
   42      23107.524000000001        -0.000088929153
   43       5060.153900000000        -0.000411608991
   44       1384.612300000000        -0.001323071777
   45        436.512580000000        -0.006330758384
   46        153.471480000000        -0.013763396237
   47         59.389087000000        -0.058678489459
   48         24.861967000000        -0.053096751383
   49         11.015704000000        -0.293578473749
   50          4.965175000000         0.719626739808
   51          1.936503000000         0.035240769174
   52          0.765728000000        -0.915044469350
   53          0.295538000000         0.642809560597
   54          0.103438000000         0.036189566917
   55     166165.079999999987        -0.000062412314
   56      23107.524000000001        -0.000270975064
   57       5060.153900000000        -0.001008738219
   58       1384.612300000000        -0.004572747672
   59        436.512580000000        -0.014225449464
   60        153.471480000000        -0.057409022612
   61         59.389087000000        -0.117770141253
   62         24.861967000000        -0.402408385080
   63         11.015704000000        -0.404067825898
   64          4.965175000000         3.173965085841
   65          1.936503000000        -4.558754069709
   66          0.765728000000         3.359184056117
   67          0.295538000000        -0.883368785477
   68          0.103438000000        -0.401875166636
 P 36
    1        234.945000000000         0.001493040865
    2         55.077385000000         0.011513646516
    3         17.389549000000         0.051917420629
    4          6.389537000000         0.152415969172
    5          2.542082000000         0.280657133347
    6          1.033764000000         0.332846453757
    7          0.418788000000         0.237334815454
    8          0.164627000000         0.062478820390
    9          0.057619000000         0.000548454891
   10        234.945000000000         0.000947001657
   11         55.077385000000         0.007652864863
   12         17.389549000000         0.034344801051
   13          6.389537000000         0.119905431714
   14          2.542082000000         0.203503217099
   15          1.033764000000        -0.002747040875
   16          0.418788000000        -0.257296169103
   17          0.164627000000        -0.147047928669
   18          0.057619000000        -0.002874310963
   19        234.945000000000         0.000375574875
   20         55.077385000000         0.003604827951
   21         17.389549000000         0.014827182253
   22          6.389537000000         0.069042479892
   23          2.542082000000         0.024231303479
   24          1.033764000000        -0.138933648741
   25          0.418788000000         0.020288961067
   26          0.164627000000         0.084027451149
   27          0.057619000000         0.002670521697
   28        234.945000000000         0.000027270728
   29         55.077385000000         0.000203083514
   30         17.389549000000         0.001394127011
   31          6.389537000000         0.003951403660
   32          2.542082000000        -0.007334571008
   33          1.033764000000         0.002202992373
   34          0.418788000000         0.004233719594
   35          0.164627000000        -0.004144012340
   36          0.057619000000        -0.000038404696
 P 36
    1        234.945000000000        -0.000755595377
    2         55.077385000000        -0.005826805070
    3         17.389549000000        -0.026274272822
    4          6.389537000000        -0.077134393581
    5          2.542082000000        -0.142034446275
    6          1.033764000000        -0.168446321639
    7          0.418788000000        -0.120109967250
    8          0.164627000000        -0.031619166604
    9          0.057619000000        -0.000277561043
   10        234.945000000000         0.001870106361
   11         55.077385000000         0.015112614801
   12         17.389549000000         0.067822934022
   13          6.389537000000         0.236785130067
   14          2.542082000000         0.401871166642
   15          1.033764000000        -0.005424762010
   16          0.418788000000        -0.508099641491
   17          0.164627000000        -0.290385201221
   18          0.057619000000        -0.005676090612
   19        234.945000000000         0.000708354000
   20         55.077385000000         0.006798895421
   21         17.389549000000         0.027964846836
   22          6.389537000000         0.130217754284
   23          2.542082000000         0.045701514884
   24          1.033764000000        -0.262036180648
   25          0.418788000000         0.038266049409
   26          0.164627000000         0.158480199493
   27          0.057619000000         0.005036744605
   28        234.945000000000        -0.000363486681
   29         55.077385000000        -0.002706863969
   30         17.389549000000        -0.018582070529
   31          6.389537000000        -0.052667555321
   32          2.542082000000         0.097761190082
   33          1.033764000000        -0.029363292808
   34          0.418788000000        -0.056430494097
   35          0.164627000000         0.055234802091
   36          0.057619000000         0.000511889352
 P 35
    1        234.945000000000         0.000004669688
    2         55.077385000000         0.000036010493
    3         17.389549000000         0.000162378781
    4          6.389537000000         0.000476701635
    5          2.542082000000         0.000877793285
    6          1.033764000000         0.001041022470
    7          0.418788000000         0.000742296855
    8          0.164627000000         0.000195410993
    9        234.945000000000        -0.000576372865
   10         55.077385000000        -0.004657757050
   11         17.389549000000        -0.020903248923
   12          6.389537000000        -0.072977947451
   13          2.542082000000        -0.123858001021
   14          1.033764000000         0.001671929301
   15          0.418788000000         0.156597962576
   16          0.164627000000         0.089497663765
   17          0.057619000000         0.001749389594
   18        234.945000000000         0.002868573661
   19         55.077385000000         0.027533030537
   20         17.389549000000         0.113247363614
   21          6.389537000000         0.527334101095
   22          2.542082000000         0.185074357967
   23          1.033764000000        -1.061150336497
   24          0.418788000000         0.154963452401
   25          0.164627000000         0.641786628869
   26          0.057619000000         0.020396966631
   27        234.945000000000        -0.001505720945
   28         55.077385000000        -0.011213015458
   29         17.389549000000        -0.076975070217
   30          6.389537000000        -0.218172068755
   31          2.542082000000         0.404969643155
   32          1.033764000000        -0.121635612253
   33          0.418788000000        -0.233759808350
   34          0.164627000000         0.228806728659
   35          0.057619000000         0.002120469769
 P 36
    1        234.945000000000        -0.000051259799
    2         55.077385000000        -0.000395292062
    3         17.389549000000        -0.001782453911
    4          6.389537000000        -0.005232818523
    5          2.542082000000        -0.009635655988
    6          1.033764000000        -0.011427444893
    7          0.418788000000        -0.008148293287
    8          0.164627000000        -0.002145052978
    9          0.057619000000        -0.000018829818
   10        234.945000000000        -0.000035564260
   11         55.077385000000        -0.000287400207
   12         17.389549000000        -0.001289804942
   13          6.389537000000        -0.004502999395
   14          2.542082000000        -0.007642479998
   15          1.033764000000         0.000103163995
   16          0.418788000000         0.009662652286
   17          0.164627000000         0.005522324755
   18          0.057619000000         0.000107943571
   19        234.945000000000         0.000759171201
   20         55.077385000000         0.007286647070
   21         17.389549000000         0.029971040389
   22          6.389537000000         0.139559554750
   23          2.542082000000         0.048980134112
   24          1.033764000000        -0.280834613534
   25          0.418788000000         0.041011249556
   26          0.164627000000         0.169849543171
   27          0.057619000000         0.005398079842
   28        234.945000000000         0.006015120692
   29         55.077385000000         0.044794250577
   30         17.389549000000         0.307503418370
   31          6.389537000000         0.871563439250
   32          2.542082000000        -1.617790659425
   33          1.033764000000         0.485915328919
   34          0.418788000000         0.933834031490
   35          0.164627000000        -0.914047249452
   36          0.057619000000        -0.008470946512
 D 12
    1          6.420000000000        -0.145463925594
    2          2.247000000000        -0.525975223111
    3          0.786450000000        -0.421796624277
    4          0.275257500000        -0.043054291965
    5          6.420000000000         0.147327027062
    6          2.247000000000         0.153300382609
    7          0.786450000000        -0.244396015202
    8          0.275257500000        -0.051960219396
    9          6.420000000000        -0.061827771650
   10          2.247000000000         0.061798342727
   11          0.786450000000        -0.008071896584
   12          0.275257500000        -0.033690439852
 D 12
    1          6.420000000000        -0.044361917027
    2          2.247000000000        -0.160405881463
    3          0.786450000000        -0.128634689131
    4          0.275257500000        -0.013130203382
    5          6.420000000000        -0.425476775705
    6          2.247000000000        -0.442727677384
    7          0.786450000000         0.705809589843
    8          0.275257500000         0.150059816278
    9          6.420000000000         0.464561896998
   10          2.247000000000        -0.464340773770
   11          0.786450000000         0.060650666992
   12          0.275257500000         0.253143437502
 D 12
    1          6.420000000000         0.011982103906
    2          2.247000000000         0.043325448215
    3          0.786450000000         0.034744084891
    4          0.275257500000         0.003546453169
    5          6.420000000000         0.213301640943
    6          2.247000000000         0.221949928807
    7          0.786450000000        -0.353839157160
    8          0.275257500000        -0.075228559770
    9          6.420000000000         0.969374638961
   10          2.247000000000        -0.968913233817
   11          0.786450000000         0.126556264727
   12          0.275257500000         0.528219877522
 F 6
    1          4.190000000000        -0.331470609615
    2          1.676000000000        -0.536560970452
    3          0.670400000000        -0.177225850818
    4          4.190000000000         0.434674338298
    5          1.676000000000        -0.186594902298
    6          0.670400000000        -0.252072562186
 F 6
    1          4.190000000000         0.167270572728
    2          1.676000000000         0.270765667385
    3          0.670400000000         0.089433779975
    4          4.190000000000         0.861369473164
    5          1.676000000000        -0.369764530652
    6          0.670400000000        -0.499517894108
 end
  // -----------------------------------------------
  // The basis set
  // -----------------------------------------------
  BAS[ATNO] = new BFNGauss[NSH];
  // Basis function   1 L = s
  InitBFNGauss(BAS[ATNO][  0]);
  BAS[ATNO][  0].l  = 0;
  BAS[ATNO][  0].ng = 70;
  BAS[ATNO][  0].a[  0] =    166165.079999999987;     BAS[ATNO][  0].d[  0] =         0.000153217623;
  BAS[ATNO][  0].a[  1] =     23107.524000000001;     BAS[ATNO][  0].d[  1] =         0.000635240145;
  BAS[ATNO][  0].a[  2] =      5060.153900000000;     BAS[ATNO][  0].d[  2] =         0.002574940051;
  BAS[ATNO][  0].a[  3] =      1384.612300000000;     BAS[ATNO][  0].d[  3] =         0.010128692860;
  BAS[ATNO][  0].a[  4] =       436.512580000000;     BAS[ATNO][  0].d[  4] =         0.035833654063;
  BAS[ATNO][  0].a[  5] =       153.471480000000;     BAS[ATNO][  0].d[  5] =         0.105524632850;
  BAS[ATNO][  0].a[  6] =        59.389087000000;     BAS[ATNO][  0].d[  6] =         0.238259073557;
  BAS[ATNO][  0].a[  7] =        24.861967000000;     BAS[ATNO][  0].d[  7] =         0.369250881300;
  BAS[ATNO][  0].a[  8] =        11.015704000000;     BAS[ATNO][  0].d[  8] =         0.305194865089;
  BAS[ATNO][  0].a[  9] =         4.965175000000;     BAS[ATNO][  0].d[  9] =         0.083723831076;
  BAS[ATNO][  0].a[ 10] =         1.936503000000;     BAS[ATNO][  0].d[ 10] =         0.003641483505;
  BAS[ATNO][  0].a[ 11] =         0.765728000000;     BAS[ATNO][  0].d[ 11] =         0.000957465146;
  BAS[ATNO][  0].a[ 12] =         0.295538000000;     BAS[ATNO][  0].d[ 12] =         0.000034219469;
  BAS[ATNO][  0].a[ 13] =         0.103438000000;     BAS[ATNO][  0].d[ 13] =         0.000025849599;
  BAS[ATNO][  0].a[ 14] =    166165.079999999987;     BAS[ATNO][  0].d[ 14] =         0.000000184546;
  BAS[ATNO][  0].a[ 15] =     23107.524000000001;     BAS[ATNO][  0].d[ 15] =         0.000000765047;
  BAS[ATNO][  0].a[ 16] =      5060.153900000000;     BAS[ATNO][  0].d[ 16] =         0.000003113205;
  BAS[ATNO][  0].a[ 17] =      1384.612300000000;     BAS[ATNO][  0].d[ 17] =         0.000012270498;
  BAS[ATNO][  0].a[ 18] =       436.512580000000;     BAS[ATNO][  0].d[ 18] =         0.000044248786;
  BAS[ATNO][  0].a[ 19] =       153.471480000000;     BAS[ATNO][  0].d[ 19] =         0.000134600116;
  BAS[ATNO][  0].a[ 20] =        59.389087000000;     BAS[ATNO][  0].d[ 20] =         0.000335103394;
  BAS[ATNO][  0].a[ 21] =        24.861967000000;     BAS[ATNO][  0].d[ 21] =         0.000626147760;
  BAS[ATNO][  0].a[ 22] =        11.015704000000;     BAS[ATNO][  0].d[ 22] =         0.000804329149;
  BAS[ATNO][  0].a[ 23] =         4.965175000000;     BAS[ATNO][  0].d[ 23] =         0.000037862416;
  BAS[ATNO][  0].a[ 24] =         1.936503000000;     BAS[ATNO][  0].d[ 24] =        -0.001983870735;
  BAS[ATNO][  0].a[ 25] =         0.765728000000;     BAS[ATNO][  0].d[ 25] =        -0.002811497520;
  BAS[ATNO][  0].a[ 26] =         0.295538000000;     BAS[ATNO][  0].d[ 26] =        -0.000938277636;
  BAS[ATNO][  0].a[ 27] =         0.103438000000;     BAS[ATNO][  0].d[ 27] =         0.000000957890;
  BAS[ATNO][  0].a[ 28] =    166165.079999999987;     BAS[ATNO][  0].d[ 28] =         0.000000097171;
  BAS[ATNO][  0].a[ 29] =     23107.524000000001;     BAS[ATNO][  0].d[ 29] =         0.000000399658;
  BAS[ATNO][  0].a[ 30] =      5060.153900000000;     BAS[ATNO][  0].d[ 30] =         0.000001655393;
  BAS[ATNO][  0].a[ 31] =      1384.612300000000;     BAS[ATNO][  0].d[ 31] =         0.000006360386;
  BAS[ATNO][  0].a[ 32] =       436.512580000000;     BAS[ATNO][  0].d[ 32] =         0.000023879878;
  BAS[ATNO][  0].a[ 33] =       153.471480000000;     BAS[ATNO][  0].d[ 33] =         0.000070029476;
  BAS[ATNO][  0].a[ 34] =        59.389087000000;     BAS[ATNO][  0].d[ 34] =         0.000191082726;
  BAS[ATNO][  0].a[ 35] =        24.861967000000;     BAS[ATNO][  0].d[ 35] =         0.000336906108;
  BAS[ATNO][  0].a[ 36] =        11.015704000000;     BAS[ATNO][  0].d[ 36] =         0.000618272112;
  BAS[ATNO][  0].a[ 37] =         4.965175000000;     BAS[ATNO][  0].d[ 37] =        -0.000523949489;
  BAS[ATNO][  0].a[ 38] =         1.936503000000;     BAS[ATNO][  0].d[ 38] =        -0.002693144068;
  BAS[ATNO][  0].a[ 39] =         0.765728000000;     BAS[ATNO][  0].d[ 39] =         0.000983984506;
  BAS[ATNO][  0].a[ 40] =         0.295538000000;     BAS[ATNO][  0].d[ 40] =         0.001729977228;
  BAS[ATNO][  0].a[ 41] =         0.103438000000;     BAS[ATNO][  0].d[ 41] =         0.000021872955;
  BAS[ATNO][  0].a[ 42] =    166165.079999999987;     BAS[ATNO][  0].d[ 42] =         0.000000016489;
  BAS[ATNO][  0].a[ 43] =     23107.524000000001;     BAS[ATNO][  0].d[ 43] =         0.000000064371;
  BAS[ATNO][  0].a[ 44] =      5060.153900000000;     BAS[ATNO][  0].d[ 44] =         0.000000297943;
  BAS[ATNO][  0].a[ 45] =      1384.612300000000;     BAS[ATNO][  0].d[ 45] =         0.000000957705;
  BAS[ATNO][  0].a[ 46] =       436.512580000000;     BAS[ATNO][  0].d[ 46] =         0.000004582519;
  BAS[ATNO][  0].a[ 47] =       153.471480000000;     BAS[ATNO][  0].d[ 47] =         0.000009962633;
  BAS[ATNO][  0].a[ 48] =        59.389087000000;     BAS[ATNO][  0].d[ 48] =         0.000042474417;
  BAS[ATNO][  0].a[ 49] =        24.861967000000;     BAS[ATNO][  0].d[ 49] =         0.000038434077;
  BAS[ATNO][  0].a[ 50] =        11.015704000000;     BAS[ATNO][  0].d[ 50] =         0.000212506743;
  BAS[ATNO][  0].a[ 51] =         4.965175000000;     BAS[ATNO][  0].d[ 51] =        -0.000520901728;
  BAS[ATNO][  0].a[ 52] =         1.936503000000;     BAS[ATNO][  0].d[ 52] =        -0.000025509026;
  BAS[ATNO][  0].a[ 53] =         0.765728000000;     BAS[ATNO][  0].d[ 53] =         0.000662354828;
  BAS[ATNO][  0].a[ 54] =         0.295538000000;     BAS[ATNO][  0].d[ 54] =        -0.000465297622;
  BAS[ATNO][  0].a[ 55] =         0.103438000000;     BAS[ATNO][  0].d[ 55] =        -0.000026195814;
  BAS[ATNO][  0].a[ 56] =    166165.079999999987;     BAS[ATNO][  0].d[ 56] =        -0.000000062648;
  BAS[ATNO][  0].a[ 57] =     23107.524000000001;     BAS[ATNO][  0].d[ 57] =        -0.000000271996;
  BAS[ATNO][  0].a[ 58] =      5060.153900000000;     BAS[ATNO][  0].d[ 58] =        -0.000001012540;
  BAS[ATNO][  0].a[ 59] =      1384.612300000000;     BAS[ATNO][  0].d[ 59] =        -0.000004589980;
  BAS[ATNO][  0].a[ 60] =       436.512580000000;     BAS[ATNO][  0].d[ 60] =        -0.000014279058;
  BAS[ATNO][  0].a[ 61] =       153.471480000000;     BAS[ATNO][  0].d[ 61] =        -0.000057625369;
  BAS[ATNO][  0].a[ 62] =        59.389087000000;     BAS[ATNO][  0].d[ 62] =        -0.000118213960;
  BAS[ATNO][  0].a[ 63] =        24.861967000000;     BAS[ATNO][  0].d[ 63] =        -0.000403924866;
  BAS[ATNO][  0].a[ 64] =        11.015704000000;     BAS[ATNO][  0].d[ 64] =        -0.000405590561;
  BAS[ATNO][  0].a[ 65] =         4.965175000000;     BAS[ATNO][  0].d[ 65] =         0.003185926215;
  BAS[ATNO][  0].a[ 66] =         1.936503000000;     BAS[ATNO][  0].d[ 66] =        -0.004575933794;
  BAS[ATNO][  0].a[ 67] =         0.765728000000;     BAS[ATNO][  0].d[ 67] =         0.003371843185;
  BAS[ATNO][  0].a[ 68] =         0.295538000000;     BAS[ATNO][  0].d[ 68] =        -0.000886697772;
  BAS[ATNO][  0].a[ 69] =         0.103438000000;     BAS[ATNO][  0].d[ 69] =        -0.000403389638;

  // Basis function   2 L = s
  InitBFNGauss(BAS[ATNO][  1]);
  BAS[ATNO][  1].l  = 0;
  BAS[ATNO][  1].ng = 68;
  BAS[ATNO][  1].a[  0] =    166165.079999999987;     BAS[ATNO][  1].d[  0] =         0.000000839868;
  BAS[ATNO][  1].a[  1] =     23107.524000000001;     BAS[ATNO][  1].d[  1] =         0.000003482094;
  BAS[ATNO][  1].a[  2] =      5060.153900000000;     BAS[ATNO][  1].d[  2] =         0.000014114635;
  BAS[ATNO][  1].a[  3] =      1384.612300000000;     BAS[ATNO][  1].d[  3] =         0.000055520828;
  BAS[ATNO][  1].a[  4] =       436.512580000000;     BAS[ATNO][  1].d[  4] =         0.000196423584;
  BAS[ATNO][  1].a[  5] =       153.471480000000;     BAS[ATNO][  1].d[  5] =         0.000578437425;
  BAS[ATNO][  1].a[  6] =        59.389087000000;     BAS[ATNO][  1].d[  6] =         0.001306026482;
  BAS[ATNO][  1].a[  7] =        24.861967000000;     BAS[ATNO][  1].d[  7] =         0.002024063229;
  BAS[ATNO][  1].a[  8] =        11.015704000000;     BAS[ATNO][  1].d[  8] =         0.001672937656;
  BAS[ATNO][  1].a[  9] =         4.965175000000;     BAS[ATNO][  1].d[  9] =         0.000458935473;
  BAS[ATNO][  1].a[ 10] =         1.936503000000;     BAS[ATNO][  1].d[ 10] =         0.000019960935;
  BAS[ATNO][  1].a[ 11] =         0.765728000000;     BAS[ATNO][  1].d[ 11] =         0.000005248383;
  BAS[ATNO][  1].a[ 12] =    166165.079999999987;     BAS[ATNO][  1].d[ 12] =        -0.000034601792;
  BAS[ATNO][  1].a[ 13] =     23107.524000000001;     BAS[ATNO][  1].d[ 13] =        -0.000143443777;
  BAS[ATNO][  1].a[ 14] =      5060.153900000000;     BAS[ATNO][  1].d[ 14] =        -0.000583715537;
  BAS[ATNO][  1].a[ 15] =      1384.612300000000;     BAS[ATNO][  1].d[ 15] =        -0.002300677701;
  BAS[ATNO][  1].a[ 16] =       436.512580000000;     BAS[ATNO][  1].d[ 16] =        -0.008296500494;
  BAS[ATNO][  1].a[ 17] =       153.471480000000;     BAS[ATNO][  1].d[ 17] =        -0.025237074966;
  BAS[ATNO][  1].a[ 18] =        59.389087000000;     BAS[ATNO][  1].d[ 18] =        -0.062830774234;
  BAS[ATNO][  1].a[ 19] =        24.861967000000;     BAS[ATNO][  1].d[ 19] =        -0.117400626735;
  BAS[ATNO][  1].a[ 20] =        11.015704000000;     BAS[ATNO][  1].d[ 20] =        -0.150809045768;
  BAS[ATNO][  1].a[ 21] =         4.965175000000;     BAS[ATNO][  1].d[ 21] =        -0.007099077407;
  BAS[ATNO][  1].a[ 22] =         1.936503000000;     BAS[ATNO][  1].d[ 22] =         0.371969178261;
  BAS[ATNO][  1].a[ 23] =         0.765728000000;     BAS[ATNO][  1].d[ 23] =         0.527146453651;
  BAS[ATNO][  1].a[ 24] =         0.295538000000;     BAS[ATNO][  1].d[ 24] =         0.175923942641;
  BAS[ATNO][  1].a[ 25] =         0.103438000000;     BAS[ATNO][  1].d[ 25] =        -0.000179601132;
  BAS[ATNO][  1].a[ 26] =    166165.079999999987;     BAS[ATNO][  1].d[ 26] =        -0.000014383096;
  BAS[ATNO][  1].a[ 27] =     23107.524000000001;     BAS[ATNO][  1].d[ 27] =        -0.000059156741;
  BAS[ATNO][  1].a[ 28] =      5060.153900000000;     BAS[ATNO][  1].d[ 28] =        -0.000245028908;
  BAS[ATNO][  1].a[ 29] =      1384.612300000000;     BAS[ATNO][  1].d[ 29] =        -0.000941455353;
  BAS[ATNO][  1].a[ 30] =       436.512580000000;     BAS[ATNO][  1].d[ 30] =        -0.003534665629;
  BAS[ATNO][  1].a[ 31] =       153.471480000000;     BAS[ATNO][  1].d[ 31] =        -0.010365663720;
  BAS[ATNO][  1].a[ 32] =        59.389087000000;     BAS[ATNO][  1].d[ 32] =        -0.028283794117;
  BAS[ATNO][  1].a[ 33] =        24.861967000000;     BAS[ATNO][  1].d[ 33] =        -0.049868364364;
  BAS[ATNO][  1].a[ 34] =        11.015704000000;     BAS[ATNO][  1].d[ 34] =        -0.091515761289;
  BAS[ATNO][  1].a[ 35] =         4.965175000000;     BAS[ATNO][  1].d[ 35] =         0.077554260496;
  BAS[ATNO][  1].a[ 36] =         1.936503000000;     BAS[ATNO][  1].d[ 36] =         0.398635366147;
  BAS[ATNO][  1].a[ 37] =         0.765728000000;     BAS[ATNO][  1].d[ 37] =        -0.145647991292;
  BAS[ATNO][  1].a[ 38] =         0.295538000000;     BAS[ATNO][  1].d[ 38] =        -0.256068776197;
  BAS[ATNO][  1].a[ 39] =         0.103438000000;     BAS[ATNO][  1].d[ 39] =        -0.003237603847;
  BAS[ATNO][  1].a[ 40] =    166165.079999999987;     BAS[ATNO][  1].d[ 40] =        -0.000001954177;
  BAS[ATNO][  1].a[ 41] =     23107.524000000001;     BAS[ATNO][  1].d[ 41] =        -0.000007628913;
  BAS[ATNO][  1].a[ 42] =      5060.153900000000;     BAS[ATNO][  1].d[ 42] =        -0.000035310459;
  BAS[ATNO][  1].a[ 43] =      1384.612300000000;     BAS[ATNO][  1].d[ 43] =        -0.000113501584;
  BAS[ATNO][  1].a[ 44] =       436.512580000000;     BAS[ATNO][  1].d[ 44] =        -0.000543093063;
  BAS[ATNO][  1].a[ 45] =       153.471480000000;     BAS[ATNO][  1].d[ 45] =        -0.001180712415;
  BAS[ATNO][  1].a[ 46] =        59.389087000000;     BAS[ATNO][  1].d[ 46] =        -0.005033817220;
  BAS[ATNO][  1].a[ 47] =        24.861967000000;     BAS[ATNO][  1].d[ 47] =        -0.004554979924;
  BAS[ATNO][  1].a[ 48] =        11.015704000000;     BAS[ATNO][  1].d[ 48] =        -0.025185044644;
  BAS[ATNO][  1].a[ 49] =         4.965175000000;     BAS[ATNO][  1].d[ 49] =         0.061734197804;
  BAS[ATNO][  1].a[ 50] =         1.936503000000;     BAS[ATNO][  1].d[ 50] =         0.003023179232;
  BAS[ATNO][  1].a[ 51] =         0.765728000000;     BAS[ATNO][  1].d[ 51] =        -0.078498384155;
  BAS[ATNO][  1].a[ 52] =         0.295538000000;     BAS[ATNO][  1].d[ 52] =         0.055144327425;
  BAS[ATNO][  1].a[ 53] =         0.103438000000;     BAS[ATNO][  1].d[ 53] =         0.003104573189;
  BAS[ATNO][  1].a[ 54] =    166165.079999999987;     BAS[ATNO][  1].d[ 54] =         0.000000263690;
  BAS[ATNO][  1].a[ 55] =     23107.524000000001;     BAS[ATNO][  1].d[ 55] =         0.000001144860;
  BAS[ATNO][  1].a[ 56] =      5060.153900000000;     BAS[ATNO][  1].d[ 56] =         0.000004261883;
  BAS[ATNO][  1].a[ 57] =      1384.612300000000;     BAS[ATNO][  1].d[ 57] =         0.000019319696;
  BAS[ATNO][  1].a[ 58] =       436.512580000000;     BAS[ATNO][  1].d[ 58] =         0.000060102016;
  BAS[ATNO][  1].a[ 59] =       153.471480000000;     BAS[ATNO][  1].d[ 59] =         0.000242551072;
  BAS[ATNO][  1].a[ 60] =        59.389087000000;     BAS[ATNO][  1].d[ 60] =         0.000497574645;
  BAS[ATNO][  1].a[ 61] =        24.861967000000;     BAS[ATNO][  1].d[ 61] =         0.001700161071;
  BAS[ATNO][  1].a[ 62] =        11.015704000000;     BAS[ATNO][  1].d[ 62] =         0.001707172149;
  BAS[ATNO][  1].a[ 63] =         4.965175000000;     BAS[ATNO][  1].d[ 63] =        -0.013409889257;
  BAS[ATNO][  1].a[ 64] =         1.936503000000;     BAS[ATNO][  1].d[ 64] =         0.019260573311;
  BAS[ATNO][  1].a[ 65] =         0.765728000000;     BAS[ATNO][  1].d[ 65] =        -0.014192432798;
  BAS[ATNO][  1].a[ 66] =         0.295538000000;     BAS[ATNO][  1].d[ 66] =         0.003732201605;
  BAS[ATNO][  1].a[ 67] =         0.103438000000;     BAS[ATNO][  1].d[ 67] =         0.001697908242;

  // Basis function   3 L = s
  InitBFNGauss(BAS[ATNO][  2]);
  BAS[ATNO][  2].l  = 0;
  BAS[ATNO][  2].ng = 68;
  BAS[ATNO][  2].a[  0] =    166165.079999999987;     BAS[ATNO][  2].d[  0] =         0.000000063779;
  BAS[ATNO][  2].a[  1] =     23107.524000000001;     BAS[ATNO][  2].d[  1] =         0.000000264426;
  BAS[ATNO][  2].a[  2] =      5060.153900000000;     BAS[ATNO][  2].d[  2] =         0.000001071847;
  BAS[ATNO][  2].a[  3] =      1384.612300000000;     BAS[ATNO][  2].d[  3] =         0.000004216179;
  BAS[ATNO][  2].a[  4] =       436.512580000000;     BAS[ATNO][  2].d[  4] =         0.000014916148;
  BAS[ATNO][  2].a[  5] =       153.471480000000;     BAS[ATNO][  2].d[  5] =         0.000043925776;
  BAS[ATNO][  2].a[  6] =        59.389087000000;     BAS[ATNO][  2].d[  6] =         0.000099177931;
  BAS[ATNO][  2].a[  7] =        24.861967000000;     BAS[ATNO][  2].d[  7] =         0.000153704696;
  BAS[ATNO][  2].a[  8] =        11.015704000000;     BAS[ATNO][  2].d[  8] =         0.000127040682;
  BAS[ATNO][  2].a[  9] =         4.965175000000;     BAS[ATNO][  2].d[  9] =         0.000034850955;
  BAS[ATNO][  2].a[ 10] =         1.936503000000;     BAS[ATNO][  2].d[ 10] =         0.000001515807;
  BAS[ATNO][  2].a[ 11] =         0.765728000000;     BAS[ATNO][  2].d[ 11] =         0.000000398555;
  BAS[ATNO][  2].a[ 12] =    166165.079999999987;     BAS[ATNO][  2].d[ 12] =         0.000011310822;
  BAS[ATNO][  2].a[ 13] =     23107.524000000001;     BAS[ATNO][  2].d[ 13] =         0.000046889681;
  BAS[ATNO][  2].a[ 14] =      5060.153900000000;     BAS[ATNO][  2].d[ 14] =         0.000190808106;
  BAS[ATNO][  2].a[ 15] =      1384.612300000000;     BAS[ATNO][  2].d[ 15] =         0.000752058026;
  BAS[ATNO][  2].a[ 16] =       436.512580000000;     BAS[ATNO][  2].d[ 16] =         0.002712005154;
  BAS[ATNO][  2].a[ 17] =       153.471480000000;     BAS[ATNO][  2].d[ 17] =         0.008249632169;
  BAS[ATNO][  2].a[ 18] =        59.389087000000;     BAS[ATNO][  2].d[ 18] =         0.020538464819;
  BAS[ATNO][  2].a[ 19] =        24.861967000000;     BAS[ATNO][  2].d[ 19] =         0.038376554664;
  BAS[ATNO][  2].a[ 20] =        11.015704000000;     BAS[ATNO][  2].d[ 20] =         0.049297280174;
  BAS[ATNO][  2].a[ 21] =         4.965175000000;     BAS[ATNO][  2].d[ 21] =         0.002320584990;
  BAS[ATNO][  2].a[ 22] =         1.936503000000;     BAS[ATNO][  2].d[ 22] =        -0.121591305769;
  BAS[ATNO][  2].a[ 23] =         0.765728000000;     BAS[ATNO][  2].d[ 23] =        -0.172316496573;
  BAS[ATNO][  2].a[ 24] =         0.295538000000;     BAS[ATNO][  2].d[ 24] =        -0.057506974104;
  BAS[ATNO][  2].a[ 25] =         0.103438000000;     BAS[ATNO][  2].d[ 25] =         0.000058708994;
  BAS[ATNO][  2].a[ 26] =    166165.079999999987;     BAS[ATNO][  2].d[ 26] =        -0.000043188732;
  BAS[ATNO][  2].a[ 27] =     23107.524000000001;     BAS[ATNO][  2].d[ 27] =        -0.000177632448;
  BAS[ATNO][  2].a[ 28] =      5060.153900000000;     BAS[ATNO][  2].d[ 28] =        -0.000735758665;
  BAS[ATNO][  2].a[ 29] =      1384.612300000000;     BAS[ATNO][  2].d[ 29] =        -0.002826947809;
  BAS[ATNO][  2].a[ 30] =       436.512580000000;     BAS[ATNO][  2].d[ 30] =        -0.010613689988;
  BAS[ATNO][  2].a[ 31] =       153.471480000000;     BAS[ATNO][  2].d[ 31] =        -0.031125416888;
  BAS[ATNO][  2].a[ 32] =        59.389087000000;     BAS[ATNO][  2].d[ 32] =        -0.084928944911;
  BAS[ATNO][  2].a[ 33] =        24.861967000000;     BAS[ATNO][  2].d[ 33] =        -0.149741846949;
  BAS[ATNO][  2].a[ 34] =        11.015704000000;     BAS[ATNO][  2].d[ 34] =        -0.274798247252;
  BAS[ATNO][  2].a[ 35] =         4.965175000000;     BAS[ATNO][  2].d[ 35] =         0.232875458292;
  BAS[ATNO][  2].a[ 36] =         1.936503000000;     BAS[ATNO][  2].d[ 36] =         1.196999274952;
  BAS[ATNO][  2].a[ 37] =         0.765728000000;     BAS[ATNO][  2].d[ 37] =        -0.437343383903;
  BAS[ATNO][  2].a[ 38] =         0.295538000000;     BAS[ATNO][  2].d[ 38] =        -0.768908545191;
  BAS[ATNO][  2].a[ 39] =         0.103438000000;     BAS[ATNO][  2].d[ 39] =        -0.009721690012;
  BAS[ATNO][  2].a[ 40] =    166165.079999999987;     BAS[ATNO][  2].d[ 40] =         0.000005787689;
  BAS[ATNO][  2].a[ 41] =     23107.524000000001;     BAS[ATNO][  2].d[ 41] =         0.000022594560;
  BAS[ATNO][  2].a[ 42] =      5060.153900000000;     BAS[ATNO][  2].d[ 42] =         0.000104579025;
  BAS[ATNO][  2].a[ 43] =      1384.612300000000;     BAS[ATNO][  2].d[ 43] =         0.000336157760;
  BAS[ATNO][  2].a[ 44] =       436.512580000000;     BAS[ATNO][  2].d[ 44] =         0.001608479292;
  BAS[ATNO][  2].a[ 45] =       153.471480000000;     BAS[ATNO][  2].d[ 45] =         0.003496917194;
  BAS[ATNO][  2].a[ 46] =        59.389087000000;     BAS[ATNO][  2].d[ 46] =         0.014908661725;
  BAS[ATNO][  2].a[ 47] =        24.861967000000;     BAS[ATNO][  2].d[ 47] =         0.013490488804;
  BAS[ATNO][  2].a[ 48] =        11.015704000000;     BAS[ATNO][  2].d[ 48] =         0.074590573057;
  BAS[ATNO][  2].a[ 49] =         4.965175000000;     BAS[ATNO][  2].d[ 49] =        -0.182838238186;
  BAS[ATNO][  2].a[ 50] =         1.936503000000;     BAS[ATNO][  2].d[ 50] =        -0.008953753094;
  BAS[ATNO][  2].a[ 51] =         0.765728000000;     BAS[ATNO][  2].d[ 51] =         0.232488746433;
  BAS[ATNO][  2].a[ 52] =         0.295538000000;     BAS[ATNO][  2].d[ 52] =        -0.163321012196;
  BAS[ATNO][  2].a[ 53] =         0.103438000000;     BAS[ATNO][  2].d[ 53] =        -0.009194817660;
  BAS[ATNO][  2].a[ 54] =    166165.079999999987;     BAS[ATNO][  2].d[ 54] =         0.000000290183;
  BAS[ATNO][  2].a[ 55] =     23107.524000000001;     BAS[ATNO][  2].d[ 55] =         0.000001259886;
  BAS[ATNO][  2].a[ 56] =      5060.153900000000;     BAS[ATNO][  2].d[ 56] =         0.000004690081;
  BAS[ATNO][  2].a[ 57] =      1384.612300000000;     BAS[ATNO][  2].d[ 57] =         0.000021260777;
  BAS[ATNO][  2].a[ 58] =       436.512580000000;     BAS[ATNO][  2].d[ 58] =         0.000066140564;
  BAS[ATNO][  2].a[ 59] =       153.471480000000;     BAS[ATNO][  2].d[ 59] =         0.000266920574;
  BAS[ATNO][  2].a[ 60] =        59.389087000000;     BAS[ATNO][  2].d[ 60] =         0.000547566781;
  BAS[ATNO][  2].a[ 61] =        24.861967000000;     BAS[ATNO][  2].d[ 61] =         0.001870979026;
  BAS[ATNO][  2].a[ 62] =        11.015704000000;     BAS[ATNO][  2].d[ 62] =         0.001878694519;
  BAS[ATNO][  2].a[ 63] =         4.965175000000;     BAS[ATNO][  2].d[ 63] =        -0.014757202694;
  BAS[ATNO][  2].a[ 64] =         1.936503000000;     BAS[ATNO][  2].d[ 64] =         0.021195714515;
  BAS[ATNO][  2].a[ 65] =         0.765728000000;     BAS[ATNO][  2].d[ 65] =        -0.015618369662;
  BAS[ATNO][  2].a[ 66] =         0.295538000000;     BAS[ATNO][  2].d[ 66] =         0.004107181985;
  BAS[ATNO][  2].a[ 67] =         0.103438000000;     BAS[ATNO][  2].d[ 67] =         0.001868499852;

  // Basis function   4 L = s
  InitBFNGauss(BAS[ATNO][  3]);
  BAS[ATNO][  3].l  = 0;
  BAS[ATNO][  3].ng = 68;
  BAS[ATNO][  3].a[  0] =    166165.079999999987;     BAS[ATNO][  3].d[  0] =        -0.000000075533;
  BAS[ATNO][  3].a[  1] =     23107.524000000001;     BAS[ATNO][  3].d[  1] =        -0.000000313160;
  BAS[ATNO][  3].a[  2] =      5060.153900000000;     BAS[ATNO][  3].d[  2] =        -0.000001269392;
  BAS[ATNO][  3].a[  3] =      1384.612300000000;     BAS[ATNO][  3].d[  3] =        -0.000004993234;
  BAS[ATNO][  3].a[  4] =       436.512580000000;     BAS[ATNO][  3].d[  4] =        -0.000017665245;
  BAS[ATNO][  3].a[  5] =       153.471480000000;     BAS[ATNO][  3].d[  5] =        -0.000052021445;
  BAS[ATNO][  3].a[  6] =        59.389087000000;     BAS[ATNO][  3].d[  6] =        -0.000117456757;
  BAS[ATNO][  3].a[  7] =        24.861967000000;     BAS[ATNO][  3].d[  7] =        -0.000182032988;
  BAS[ATNO][  3].a[  8] =        11.015704000000;     BAS[ATNO][  3].d[  8] =        -0.000150454707;
  BAS[ATNO][  3].a[  9] =         4.965175000000;     BAS[ATNO][  3].d[  9] =        -0.000041274104;
  BAS[ATNO][  3].a[ 10] =         1.936503000000;     BAS[ATNO][  3].d[ 10] =        -0.000001795175;
  BAS[ATNO][  3].a[ 11] =         0.765728000000;     BAS[ATNO][  3].d[ 11] =        -0.000000472010;
  BAS[ATNO][  3].a[ 12] =    166165.079999999987;     BAS[ATNO][  3].d[ 12] =        -0.000002187016;
  BAS[ATNO][  3].a[ 13] =     23107.524000000001;     BAS[ATNO][  3].d[ 13] =        -0.000009066402;
  BAS[ATNO][  3].a[ 14] =      5060.153900000000;     BAS[ATNO][  3].d[ 14] =        -0.000036893897;
  BAS[ATNO][  3].a[ 15] =      1384.612300000000;     BAS[ATNO][  3].d[ 15] =        -0.000145414949;
  BAS[ATNO][  3].a[ 16] =       436.512580000000;     BAS[ATNO][  3].d[ 16] =        -0.000524382532;
  BAS[ATNO][  3].a[ 17] =       153.471480000000;     BAS[ATNO][  3].d[ 17] =        -0.001595116070;
  BAS[ATNO][  3].a[ 18] =        59.389087000000;     BAS[ATNO][  3].d[ 18] =        -0.003971235883;
  BAS[ATNO][  3].a[ 19] =        24.861967000000;     BAS[ATNO][  3].d[ 19] =        -0.007420337999;
  BAS[ATNO][  3].a[ 20] =        11.015704000000;     BAS[ATNO][  3].d[ 20] =        -0.009531926056;
  BAS[ATNO][  3].a[ 21] =         4.965175000000;     BAS[ATNO][  3].d[ 21] =        -0.000448699085;
  BAS[ATNO][  3].a[ 22] =         1.936503000000;     BAS[ATNO][  3].d[ 22] =         0.023510411355;
  BAS[ATNO][  3].a[ 23] =         0.765728000000;     BAS[ATNO][  3].d[ 23] =         0.033318432532;
  BAS[ATNO][  3].a[ 24] =         0.295538000000;     BAS[ATNO][  3].d[ 24] =         0.011119319827;
  BAS[ATNO][  3].a[ 25] =         0.103438000000;     BAS[ATNO][  3].d[ 25] =        -0.000011351738;
  BAS[ATNO][  3].a[ 26] =    166165.079999999987;     BAS[ATNO][  3].d[ 26] =         0.000003491783;
  BAS[ATNO][  3].a[ 27] =     23107.524000000001;     BAS[ATNO][  3].d[ 27] =         0.000014361476;
  BAS[ATNO][  3].a[ 28] =      5060.153900000000;     BAS[ATNO][  3].d[ 28] =         0.000059485643;
  BAS[ATNO][  3].a[ 29] =      1384.612300000000;     BAS[ATNO][  3].d[ 29] =         0.000228557019;
  BAS[ATNO][  3].a[ 30] =       436.512580000000;     BAS[ATNO][  3].d[ 30] =         0.000858110412;
[...]
  BAS[ATNO][  6].a[  3] =         6.389537000000;     BAS[ATNO][  6].d[  3] =         0.077134393581;
  BAS[ATNO][  6].a[  4] =         2.542082000000;     BAS[ATNO][  6].d[  4] =         0.142034446275;
  BAS[ATNO][  6].a[  5] =         1.033764000000;     BAS[ATNO][  6].d[  5] =         0.168446321639;
  BAS[ATNO][  6].a[  6] =         0.418788000000;     BAS[ATNO][  6].d[  6] =         0.120109967250;
  BAS[ATNO][  6].a[  7] =         0.164627000000;     BAS[ATNO][  6].d[  7] =         0.031619166604;
  BAS[ATNO][  6].a[  8] =         0.057619000000;     BAS[ATNO][  6].d[  8] =         0.000277561043;
  BAS[ATNO][  6].a[  9] =       234.945000000000;     BAS[ATNO][  6].d[  9] =        -0.001870106361;
  BAS[ATNO][  6].a[ 10] =        55.077385000000;     BAS[ATNO][  6].d[ 10] =        -0.015112614801;
  BAS[ATNO][  6].a[ 11] =        17.389549000000;     BAS[ATNO][  6].d[ 11] =        -0.067822934022;
  BAS[ATNO][  6].a[ 12] =         6.389537000000;     BAS[ATNO][  6].d[ 12] =        -0.236785130067;
  BAS[ATNO][  6].a[ 13] =         2.542082000000;     BAS[ATNO][  6].d[ 13] =        -0.401871166642;
  BAS[ATNO][  6].a[ 14] =         1.033764000000;     BAS[ATNO][  6].d[ 14] =         0.005424762010;
  BAS[ATNO][  6].a[ 15] =         0.418788000000;     BAS[ATNO][  6].d[ 15] =         0.508099641491;
  BAS[ATNO][  6].a[ 16] =         0.164627000000;     BAS[ATNO][  6].d[ 16] =         0.290385201221;
  BAS[ATNO][  6].a[ 17] =         0.057619000000;     BAS[ATNO][  6].d[ 17] =         0.005676090612;
  BAS[ATNO][  6].a[ 18] =       234.945000000000;     BAS[ATNO][  6].d[ 18] =        -0.000708354000;
  BAS[ATNO][  6].a[ 19] =        55.077385000000;     BAS[ATNO][  6].d[ 19] =        -0.006798895421;
  BAS[ATNO][  6].a[ 20] =        17.389549000000;     BAS[ATNO][  6].d[ 20] =        -0.027964846836;
  BAS[ATNO][  6].a[ 21] =         6.389537000000;     BAS[ATNO][  6].d[ 21] =        -0.130217754284;
  BAS[ATNO][  6].a[ 22] =         2.542082000000;     BAS[ATNO][  6].d[ 22] =        -0.045701514884;
  BAS[ATNO][  6].a[ 23] =         1.033764000000;     BAS[ATNO][  6].d[ 23] =         0.262036180648;
  BAS[ATNO][  6].a[ 24] =         0.418788000000;     BAS[ATNO][  6].d[ 24] =        -0.038266049409;
  BAS[ATNO][  6].a[ 25] =         0.164627000000;     BAS[ATNO][  6].d[ 25] =        -0.158480199493;
  BAS[ATNO][  6].a[ 26] =         0.057619000000;     BAS[ATNO][  6].d[ 26] =        -0.005036744605;
  BAS[ATNO][  6].a[ 27] =       234.945000000000;     BAS[ATNO][  6].d[ 27] =         0.000363486681;
  BAS[ATNO][  6].a[ 28] =        55.077385000000;     BAS[ATNO][  6].d[ 28] =         0.002706863969;
  BAS[ATNO][  6].a[ 29] =        17.389549000000;     BAS[ATNO][  6].d[ 29] =         0.018582070529;
  BAS[ATNO][  6].a[ 30] =         6.389537000000;     BAS[ATNO][  6].d[ 30] =         0.052667555321;
  BAS[ATNO][  6].a[ 31] =         2.542082000000;     BAS[ATNO][  6].d[ 31] =        -0.097761190082;
  BAS[ATNO][  6].a[ 32] =         1.033764000000;     BAS[ATNO][  6].d[ 32] =         0.029363292808;
  BAS[ATNO][  6].a[ 33] =         0.418788000000;     BAS[ATNO][  6].d[ 33] =         0.056430494097;
  BAS[ATNO][  6].a[ 34] =         0.164627000000;     BAS[ATNO][  6].d[ 34] =        -0.055234802091;
  BAS[ATNO][  6].a[ 35] =         0.057619000000;     BAS[ATNO][  6].d[ 35] =        -0.000511889352;

  // Basis function   8 L = p
  InitBFNGauss(BAS[ATNO][  7]);
  BAS[ATNO][  7].l  = 1;
  BAS[ATNO][  7].ng = 35;
  BAS[ATNO][  7].a[  0] =       234.945000000000;     BAS[ATNO][  7].d[  0] =        -0.000004669688;
  BAS[ATNO][  7].a[  1] =        55.077385000000;     BAS[ATNO][  7].d[  1] =        -0.000036010493;
  BAS[ATNO][  7].a[  2] =        17.389549000000;     BAS[ATNO][  7].d[  2] =        -0.000162378781;
  BAS[ATNO][  7].a[  3] =         6.389537000000;     BAS[ATNO][  7].d[  3] =        -0.000476701635;
  BAS[ATNO][  7].a[  4] =         2.542082000000;     BAS[ATNO][  7].d[  4] =        -0.000877793285;
  BAS[ATNO][  7].a[  5] =         1.033764000000;     BAS[ATNO][  7].d[  5] =        -0.001041022470;
  BAS[ATNO][  7].a[  6] =         0.418788000000;     BAS[ATNO][  7].d[  6] =        -0.000742296855;
  BAS[ATNO][  7].a[  7] =         0.164627000000;     BAS[ATNO][  7].d[  7] =        -0.000195410993;
  BAS[ATNO][  7].a[  8] =       234.945000000000;     BAS[ATNO][  7].d[  8] =         0.000576372865;
  BAS[ATNO][  7].a[  9] =        55.077385000000;     BAS[ATNO][  7].d[  9] =         0.004657757050;
  BAS[ATNO][  7].a[ 10] =        17.389549000000;     BAS[ATNO][  7].d[ 10] =         0.020903248923;
  BAS[ATNO][  7].a[ 11] =         6.389537000000;     BAS[ATNO][  7].d[ 11] =         0.072977947451;
  BAS[ATNO][  7].a[ 12] =         2.542082000000;     BAS[ATNO][  7].d[ 12] =         0.123858001021;
  BAS[ATNO][  7].a[ 13] =         1.033764000000;     BAS[ATNO][  7].d[ 13] =        -0.001671929301;
  BAS[ATNO][  7].a[ 14] =         0.418788000000;     BAS[ATNO][  7].d[ 14] =        -0.156597962576;
  BAS[ATNO][  7].a[ 15] =         0.164627000000;     BAS[ATNO][  7].d[ 15] =        -0.089497663765;
  BAS[ATNO][  7].a[ 16] =         0.057619000000;     BAS[ATNO][  7].d[ 16] =        -0.001749389594;
  BAS[ATNO][  7].a[ 17] =       234.945000000000;     BAS[ATNO][  7].d[ 17] =        -0.002868573661;
  BAS[ATNO][  7].a[ 18] =        55.077385000000;     BAS[ATNO][  7].d[ 18] =        -0.027533030537;
  BAS[ATNO][  7].a[ 19] =        17.389549000000;     BAS[ATNO][  7].d[ 19] =        -0.113247363614;
  BAS[ATNO][  7].a[ 20] =         6.389537000000;     BAS[ATNO][  7].d[ 20] =        -0.527334101095;
  BAS[ATNO][  7].a[ 21] =         2.542082000000;     BAS[ATNO][  7].d[ 21] =        -0.185074357967;
  BAS[ATNO][  7].a[ 22] =         1.033764000000;     BAS[ATNO][  7].d[ 22] =         1.061150336497;
  BAS[ATNO][  7].a[ 23] =         0.418788000000;     BAS[ATNO][  7].d[ 23] =        -0.154963452401;
  BAS[ATNO][  7].a[ 24] =         0.164627000000;     BAS[ATNO][  7].d[ 24] =        -0.641786628869;
  BAS[ATNO][  7].a[ 25] =         0.057619000000;     BAS[ATNO][  7].d[ 25] =        -0.020396966631;
  BAS[ATNO][  7].a[ 26] =       234.945000000000;     BAS[ATNO][  7].d[ 26] =         0.001505720945;
  BAS[ATNO][  7].a[ 27] =        55.077385000000;     BAS[ATNO][  7].d[ 27] =         0.011213015458;
  BAS[ATNO][  7].a[ 28] =        17.389549000000;     BAS[ATNO][  7].d[ 28] =         0.076975070217;
  BAS[ATNO][  7].a[ 29] =         6.389537000000;     BAS[ATNO][  7].d[ 29] =         0.218172068755;
  BAS[ATNO][  7].a[ 30] =         2.542082000000;     BAS[ATNO][  7].d[ 30] =        -0.404969643155;
  BAS[ATNO][  7].a[ 31] =         1.033764000000;     BAS[ATNO][  7].d[ 31] =         0.121635612253;
  BAS[ATNO][  7].a[ 32] =         0.418788000000;     BAS[ATNO][  7].d[ 32] =         0.233759808350;
  BAS[ATNO][  7].a[ 33] =         0.164627000000;     BAS[ATNO][  7].d[ 33] =        -0.228806728659;
  BAS[ATNO][  7].a[ 34] =         0.057619000000;     BAS[ATNO][  7].d[ 34] =        -0.002120469769;

  // Basis function   9 L = p
  InitBFNGauss(BAS[ATNO][  8]);
  BAS[ATNO][  8].l  = 1;
  BAS[ATNO][  8].ng = 36;
  BAS[ATNO][  8].a[  0] =       234.945000000000;     BAS[ATNO][  8].d[  0] =         0.000051259799;
  BAS[ATNO][  8].a[  1] =        55.077385000000;     BAS[ATNO][  8].d[  1] =         0.000395292062;
  BAS[ATNO][  8].a[  2] =        17.389549000000;     BAS[ATNO][  8].d[  2] =         0.001782453911;
  BAS[ATNO][  8].a[  3] =         6.389537000000;     BAS[ATNO][  8].d[  3] =         0.005232818523;
  BAS[ATNO][  8].a[  4] =         2.542082000000;     BAS[ATNO][  8].d[  4] =         0.009635655988;
  BAS[ATNO][  8].a[  5] =         1.033764000000;     BAS[ATNO][  8].d[  5] =         0.011427444893;
  BAS[ATNO][  8].a[  6] =         0.418788000000;     BAS[ATNO][  8].d[  6] =         0.008148293287;
  BAS[ATNO][  8].a[  7] =         0.164627000000;     BAS[ATNO][  8].d[  7] =         0.002145052978;
  BAS[ATNO][  8].a[  8] =         0.057619000000;     BAS[ATNO][  8].d[  8] =         0.000018829818;
  BAS[ATNO][  8].a[  9] =       234.945000000000;     BAS[ATNO][  8].d[  9] =         0.000035564260;
  BAS[ATNO][  8].a[ 10] =        55.077385000000;     BAS[ATNO][  8].d[ 10] =         0.000287400207;
  BAS[ATNO][  8].a[ 11] =        17.389549000000;     BAS[ATNO][  8].d[ 11] =         0.001289804942;
  BAS[ATNO][  8].a[ 12] =         6.389537000000;     BAS[ATNO][  8].d[ 12] =         0.004502999395;
  BAS[ATNO][  8].a[ 13] =         2.542082000000;     BAS[ATNO][  8].d[ 13] =         0.007642479998;
  BAS[ATNO][  8].a[ 14] =         1.033764000000;     BAS[ATNO][  8].d[ 14] =        -0.000103163995;
  BAS[ATNO][  8].a[ 15] =         0.418788000000;     BAS[ATNO][  8].d[ 15] =        -0.009662652286;
  BAS[ATNO][  8].a[ 16] =         0.164627000000;     BAS[ATNO][  8].d[ 16] =        -0.005522324755;
  BAS[ATNO][  8].a[ 17] =         0.057619000000;     BAS[ATNO][  8].d[ 17] =        -0.000107943571;
  BAS[ATNO][  8].a[ 18] =       234.945000000000;     BAS[ATNO][  8].d[ 18] =        -0.000759171201;
  BAS[ATNO][  8].a[ 19] =        55.077385000000;     BAS[ATNO][  8].d[ 19] =        -0.007286647070;
  BAS[ATNO][  8].a[ 20] =        17.389549000000;     BAS[ATNO][  8].d[ 20] =        -0.029971040389;
  BAS[ATNO][  8].a[ 21] =         6.389537000000;     BAS[ATNO][  8].d[ 21] =        -0.139559554750;
  BAS[ATNO][  8].a[ 22] =         2.542082000000;     BAS[ATNO][  8].d[ 22] =        -0.048980134112;
  BAS[ATNO][  8].a[ 23] =         1.033764000000;     BAS[ATNO][  8].d[ 23] =         0.280834613534;
  BAS[ATNO][  8].a[ 24] =         0.418788000000;     BAS[ATNO][  8].d[ 24] =        -0.041011249556;
  BAS[ATNO][  8].a[ 25] =         0.164627000000;     BAS[ATNO][  8].d[ 25] =        -0.169849543171;
  BAS[ATNO][  8].a[ 26] =         0.057619000000;     BAS[ATNO][  8].d[ 26] =        -0.005398079842;
  BAS[ATNO][  8].a[ 27] =       234.945000000000;     BAS[ATNO][  8].d[ 27] =        -0.006015120692;
  BAS[ATNO][  8].a[ 28] =        55.077385000000;     BAS[ATNO][  8].d[ 28] =        -0.044794250577;
  BAS[ATNO][  8].a[ 29] =        17.389549000000;     BAS[ATNO][  8].d[ 29] =        -0.307503418370;
  BAS[ATNO][  8].a[ 30] =         6.389537000000;     BAS[ATNO][  8].d[ 30] =        -0.871563439250;
  BAS[ATNO][  8].a[ 31] =         2.542082000000;     BAS[ATNO][  8].d[ 31] =         1.617790659425;
  BAS[ATNO][  8].a[ 32] =         1.033764000000;     BAS[ATNO][  8].d[ 32] =        -0.485915328919;
  BAS[ATNO][  8].a[ 33] =         0.418788000000;     BAS[ATNO][  8].d[ 33] =        -0.933834031490;
  BAS[ATNO][  8].a[ 34] =         0.164627000000;     BAS[ATNO][  8].d[ 34] =         0.914047249452;
  BAS[ATNO][  8].a[ 35] =         0.057619000000;     BAS[ATNO][  8].d[ 35] =         0.008470946512;

  // Basis function  10 L = d
  InitBFNGauss(BAS[ATNO][  9]);
  BAS[ATNO][  9].l  = 2;
  BAS[ATNO][  9].ng = 12;
  BAS[ATNO][  9].a[  0] =         6.420000000000;     BAS[ATNO][  9].d[  0] =         0.145463925594;
  BAS[ATNO][  9].a[  1] =         2.247000000000;     BAS[ATNO][  9].d[  1] =         0.525975223111;
  BAS[ATNO][  9].a[  2] =         0.786450000000;     BAS[ATNO][  9].d[  2] =         0.421796624277;
  BAS[ATNO][  9].a[  3] =         0.275257500000;     BAS[ATNO][  9].d[  3] =         0.043054291965;
  BAS[ATNO][  9].a[  4] =         6.420000000000;     BAS[ATNO][  9].d[  4] =        -0.147327027062;
  BAS[ATNO][  9].a[  5] =         2.247000000000;     BAS[ATNO][  9].d[  5] =        -0.153300382609;
  BAS[ATNO][  9].a[  6] =         0.786450000000;     BAS[ATNO][  9].d[  6] =         0.244396015202;
  BAS[ATNO][  9].a[  7] =         0.275257500000;     BAS[ATNO][  9].d[  7] =         0.051960219396;
  BAS[ATNO][  9].a[  8] =         6.420000000000;     BAS[ATNO][  9].d[  8] =         0.061827771650;
  BAS[ATNO][  9].a[  9] =         2.247000000000;     BAS[ATNO][  9].d[  9] =        -0.061798342727;
  BAS[ATNO][  9].a[ 10] =         0.786450000000;     BAS[ATNO][  9].d[ 10] =         0.008071896584;
  BAS[ATNO][  9].a[ 11] =         0.275257500000;     BAS[ATNO][  9].d[ 11] =         0.033690439852;

  // Basis function  11 L = d
  InitBFNGauss(BAS[ATNO][ 10]);
  BAS[ATNO][ 10].l  = 2;
  BAS[ATNO][ 10].ng = 12;
  BAS[ATNO][ 10].a[  0] =         6.420000000000;     BAS[ATNO][ 10].d[  0] =        -0.044361917027;
  BAS[ATNO][ 10].a[  1] =         2.247000000000;     BAS[ATNO][ 10].d[  1] =        -0.160405881463;
  BAS[ATNO][ 10].a[  2] =         0.786450000000;     BAS[ATNO][ 10].d[  2] =        -0.128634689131;
  BAS[ATNO][ 10].a[  3] =         0.275257500000;     BAS[ATNO][ 10].d[  3] =        -0.013130203382;
  BAS[ATNO][ 10].a[  4] =         6.420000000000;     BAS[ATNO][ 10].d[  4] =        -0.425476775705;
  BAS[ATNO][ 10].a[  5] =         2.247000000000;     BAS[ATNO][ 10].d[  5] =        -0.442727677384;
  BAS[ATNO][ 10].a[  6] =         0.786450000000;     BAS[ATNO][ 10].d[  6] =         0.705809589843;
  BAS[ATNO][ 10].a[  7] =         0.275257500000;     BAS[ATNO][ 10].d[  7] =         0.150059816278;
  BAS[ATNO][ 10].a[  8] =         6.420000000000;     BAS[ATNO][ 10].d[  8] =         0.464561896998;
  BAS[ATNO][ 10].a[  9] =         2.247000000000;     BAS[ATNO][ 10].d[  9] =        -0.464340773770;
  BAS[ATNO][ 10].a[ 10] =         0.786450000000;     BAS[ATNO][ 10].d[ 10] =         0.060650666992;
  BAS[ATNO][ 10].a[ 11] =         0.275257500000;     BAS[ATNO][ 10].d[ 11] =         0.253143437502;

  // Basis function  12 L = d
  InitBFNGauss(BAS[ATNO][ 11]);
  BAS[ATNO][ 11].l  = 2;
  BAS[ATNO][ 11].ng = 12;
  BAS[ATNO][ 11].a[  0] =         6.420000000000;     BAS[ATNO][ 11].d[  0] =         0.011982103906;
  BAS[ATNO][ 11].a[  1] =         2.247000000000;     BAS[ATNO][ 11].d[  1] =         0.043325448215;
  BAS[ATNO][ 11].a[  2] =         0.786450000000;     BAS[ATNO][ 11].d[  2] =         0.034744084891;
  BAS[ATNO][ 11].a[  3] =         0.275257500000;     BAS[ATNO][ 11].d[  3] =         0.003546453169;
  BAS[ATNO][ 11].a[  4] =         6.420000000000;     BAS[ATNO][ 11].d[  4] =         0.213301640943;
  BAS[ATNO][ 11].a[  5] =         2.247000000000;     BAS[ATNO][ 11].d[  5] =         0.221949928807;
  BAS[ATNO][ 11].a[  6] =         0.786450000000;     BAS[ATNO][ 11].d[  6] =        -0.353839157160;
  BAS[ATNO][ 11].a[  7] =         0.275257500000;     BAS[ATNO][ 11].d[  7] =        -0.075228559770;
  BAS[ATNO][ 11].a[  8] =         6.420000000000;     BAS[ATNO][ 11].d[  8] =         0.969374638961;
  BAS[ATNO][ 11].a[  9] =         2.247000000000;     BAS[ATNO][ 11].d[  9] =        -0.968913233817;
  BAS[ATNO][ 11].a[ 10] =         0.786450000000;     BAS[ATNO][ 11].d[ 10] =         0.126556264727;
  BAS[ATNO][ 11].a[ 11] =         0.275257500000;     BAS[ATNO][ 11].d[ 11] =         0.528219877522;

  // Basis function  13 L = f
  InitBFNGauss(BAS[ATNO][ 12]);
  BAS[ATNO][ 12].l  = 3;
  BAS[ATNO][ 12].ng = 6;
  BAS[ATNO][ 12].a[  0] =         4.190000000000;     BAS[ATNO][ 12].d[  0] =         0.331470609615;
  BAS[ATNO][ 12].a[  1] =         1.676000000000;     BAS[ATNO][ 12].d[  1] =         0.536560970452;
  BAS[ATNO][ 12].a[  2] =         0.670400000000;     BAS[ATNO][ 12].d[  2] =         0.177225850818;
  BAS[ATNO][ 12].a[  3] =         4.190000000000;     BAS[ATNO][ 12].d[  3] =        -0.434674338298;
  BAS[ATNO][ 12].a[  4] =         1.676000000000;     BAS[ATNO][ 12].d[  4] =         0.186594902298;
  BAS[ATNO][ 12].a[  5] =         0.670400000000;     BAS[ATNO][ 12].d[  5] =         0.252072562186;

  // Basis function  14 L = f
  InitBFNGauss(BAS[ATNO][ 13]);
  BAS[ATNO][ 13].l  = 3;
  BAS[ATNO][ 13].ng = 6;
  BAS[ATNO][ 13].a[  0] =         4.190000000000;     BAS[ATNO][ 13].d[  0] =         0.167270572728;
  BAS[ATNO][ 13].a[  1] =         1.676000000000;     BAS[ATNO][ 13].d[  1] =         0.270765667385;
  BAS[ATNO][ 13].a[  2] =         0.670400000000;     BAS[ATNO][ 13].d[  2] =         0.089433779975;
  BAS[ATNO][ 13].a[  3] =         4.190000000000;     BAS[ATNO][ 13].d[  3] =         0.861369473164;
  BAS[ATNO][ 13].a[  4] =         1.676000000000;     BAS[ATNO][ 13].d[  4] =        -0.369764530652;
  BAS[ATNO][ 13].a[  5] =         0.670400000000;     BAS[ATNO][ 13].d[  5] =        -0.499517894108;

-------
TIMINGS
-------

Total SCF time: 0 days 0 hours 0 min 4 sec 

Total time                  ....       4.095 sec
Sum of individual times     ....       3.882 sec  ( 94.8%)

Fock matrix formation       ....       3.460 sec  ( 84.5%)
  XC integration            ....       0.023 sec  (  0.7% of F)
    Basis function eval.    ....       0.007 sec  ( 30.4% of XC)
    Density eval.           ....       0.001 sec  (  4.1% of XC)
    XC-Functional eval.     ....       0.001 sec  (  5.2% of XC)
    XC-Potential eval.      ....       0.001 sec  (  5.8% of XC)
Diagonalization             ....       0.001 sec  (  0.0%)
Density matrix formation    ....       0.000 sec  (  0.0%)
Population analysis         ....       0.001 sec  (  0.0%)
Initial guess               ....       0.097 sec  (  2.4%)
Orbital Transformation      ....       0.000 sec  (  0.0%)
Orbital Orthonormalization  ....       0.000 sec  (  0.0%)
DIIS solution               ....       0.000 sec  (  0.0%)
SOSCF solution              ....       0.001 sec  (  0.0%)
Grid generation             ....       0.323 sec  (  7.9%)

-------------------------   --------------------
FINAL SINGLE POINT ENERGY       -93.255364123738
-------------------------   --------------------


                            ***************************************
                            *     ORCA property calculations      *
                            ***************************************

                                    ---------------------
                                    Active property flags
                                    ---------------------
   (+) Dipole Moment


------------------------------------------------------------------------------
                       ORCA ELECTRIC PROPERTIES CALCULATION
------------------------------------------------------------------------------

Dipole Moment Calculation                       ... on
Quadrupole Moment Calculation                   ... off
Polarizability Calculation                      ... off
GBWName                                         ... Ne_ano-rcc-qzp_274.071978_.gbw
Electron density file                           ... Ne_ano-rcc-qzp_274.071978_.scfp
The origin for moment calculation is the CENTER OF MASS  = ( 0.000000,  0.000000  0.000000)

-------------
DIPOLE MOMENT
-------------
                                X             Y             Z
Electronic contribution:      0.00000       0.00000       0.00000
Nuclear contribution   :      0.00000       0.00000       0.00000
                        -----------------------------------------
Total Dipole Moment    :      0.00000       0.00000       0.00000
                        -----------------------------------------
Magnitude (a.u.)       :      0.00000
Magnitude (Debye)      :      0.00000



--------------------
Rotational spectrum 
--------------------
 
Rotational constants in cm-1:     0.000000     0.000000     0.000000 
Rotational constants in MHz :     0.000000     0.000000     0.000000 

 Dipole components along the rotational axes: 
x,y,z [a.u.] :     0.000000     0.000000     0.000000 
x,y,z [Debye]:     0.000000     0.000000     0.000000 

 

Timings for individual modules:

Sum of individual times         ...        5.106 sec (=   0.085 min)
GTO integral calculation        ...        0.391 sec (=   0.007 min)   7.7 %
Relativistic integrals          ...        0.361 sec (=   0.006 min)   7.1 %
SCF iterations                  ...        4.353 sec (=   0.073 min)  85.3 %
                             ****ORCA TERMINATED NORMALLY****
TOTAL RUN TIME: 0 days 0 hours 0 minutes 5 seconds 451 msec
