
                                 *****************
                                 * O   R   C   A *
                                 *****************

           --- An Ab Initio, DFT and Semiempirical electronic structure package ---

                  #######################################################
                  #                        -***-                        #
                  #          Department of theory and spectroscopy      #
                  #               Directorship: Frank Neese             #
                  #        Max Planck Institute fuer Kohlenforschung    #
                  #                Kaiser Wilhelm Platz 1               #
                  #                 D-45470 Muelheim/Ruhr               #
                  #                      Germany                        #
                  #                                                     #
                  #                  All rights reserved                #
                  #                        -***-                        #
                  #######################################################


                         Program Version 4.2.1 -  RELEASE  -


 With contributions from (in alphabetic order):
   Daniel Aravena         : Magnetic Suceptibility
   Michael Atanasov       : Ab Initio Ligand Field Theory (pilot matlab implementation)
   Alexander A. Auer      : GIAO ZORA, VPT2
   Ute Becker             : Parallelization
   Giovanni Bistoni       : ED, misc. LED, open-shell LED, HFLD
   Martin Brehm           : Molecular dynamics
   Dmytro Bykov           : SCF Hessian
   Vijay G. Chilkuri      : MRCI spin determinant printing, contributions to CSF-ICE
   Dipayan Datta          : RHF DLPNO-CCSD density
   Achintya Kumar Dutta   : EOM-CC, STEOM-CC
   Dmitry Ganyushin       : Spin-Orbit,Spin-Spin,Magnetic field MRCI
   Miquel Garcia          : C-PCM Hessian, Gaussian charge scheme
   Yang Guo               : DLPNO-NEVPT2, CIM, IAO-localization
   Andreas Hansen         : Spin unrestricted coupled pair/coupled cluster methods
   Benjamin Helmich-Paris : CASSCF linear response (MC-RPA)
   Lee Huntington         : MR-EOM, pCC
   Robert Izsak           : Overlap fitted RIJCOSX, COSX-SCS-MP3, EOM
   Christian Kollmar      : KDIIS, OOCD, Brueckner-CCSD(T), CCSD density
   Simone Kossmann        : Meta GGA functionals, TD-DFT gradient, OOMP2, MP2 Hessian
   Martin Krupicka        : AUTO-CI
   Lucas Lang             : DCDCAS
   Dagmar Lenk            : GEPOL surface, SMD
   Dimitrios Liakos       : Extrapolation schemes; Compound Job, initial MDCI parallelization
   Dimitrios Manganas     : Further ROCIS development; embedding schemes
   Dimitrios Pantazis     : SARC Basis sets
   Taras Petrenko         : DFT Hessian,TD-DFT gradient, ASA, ECA, R-Raman, ABS, FL, XAS/XES, NRVS
   Peter Pinski           : DLPNO-MP2, DLPNO-MP2 Gradient
   Christoph Reimann      : Effective Core Potentials
   Marius Retegan         : Local ZFS, SOC
   Christoph Riplinger    : Optimizer, TS searches, QM/MM, DLPNO-CCSD(T), (RO)-DLPNO pert. Triples
   Tobias Risthaus        : Range-separated hybrids, TD-DFT gradient, RPA, STAB
   Michael Roemelt        : Original ROCIS implementation
   Masaaki Saitow         : Open-shell DLPNO-CCSD energy and density
   Barbara Sandhoefer     : DKH picture change effects
   Avijit Sen             : IP-ROCIS
   Kantharuban Sivalingam : CASSCF convergence, NEVPT2, FIC-MRCI
   Bernardo de Souza      : ESD, SOC TD-DFT
   Georgi Stoychev        : AutoAux, RI-MP2 NMR
   Willem Van den Heuvel  : Paramagnetic NMR
   Boris Wezisla          : Elementary symmetry handling
   Frank Wennmohs         : Technical directorship


 We gratefully acknowledge several colleagues who have allowed us to
 interface, adapt or use parts of their codes:
   Stefan Grimme, W. Hujo, H. Kruse,             : VdW corrections, initial TS optimization,
                  C. Bannwarth                     DFT functionals, gCP, sTDA/sTD-DF
   Ed Valeev, F. Pavosevic, A. Kumar             : LibInt (2-el integral package), F12 methods
   Garnet Chan, S. Sharma, J. Yang, R. Olivares  : DMRG
   Ulf Ekstrom                                   : XCFun DFT Library
   Mihaly Kallay                                 : mrcc  (arbitrary order and MRCC methods)
   Andreas Klamt, Michael Diedenhofen            : otool_cosmo (COSMO solvation model)
   Jiri Pittner, Ondrej Demel                    : Mk-CCSD
   Frank Weinhold                                : gennbo (NPA and NBO analysis)
   Christopher J. Cramer and Donald G. Truhlar   : smd solvation model
   Lars Goerigk                                  : TD-DFT with DH, B97 family of functionals
   V. Asgeirsson, H. Jonsson                     : NEB implementation
   FAccTs GmbH                                   : IRC, NEB, NEB-TS, Multilevel, MM, QM/MM, CI optimization
   S Lehtola, MJT Oliveira, MAL Marques          : LibXC Library


 Your calculation uses the libint2 library for the computation of 2-el integrals
 For citations please refer to: http://libint.valeyev.net

 Your ORCA version has been built with support for libXC version: 4.2.3
 For citations please refer to: https://tddft.org/programs/libxc/

 This ORCA versions uses:
   CBLAS   interface :  Fast vector & matrix operations
   LAPACKE interface :  Fast linear algebra routines
   SCALAPACK package :  Parallel linear algebra routines


----- Orbital basis set information -----
Your calculation utilizes the basis: ANO-RCC-TZP
   H, He:       P.-O. Widmark, P.-A. Malmqvist, and B. O. Roos, Theor. Chim. Acta 77, 291 (1990).
   s block:     B. O. Roos, V. Veryazov and P.-O. Widmark, Theor. Chem. Acc. 111, 345 (2004).
   p block:     B. O. Roos, R. Lindh, P.-A. Malmqvist, V. Veryazov, and P.-O. Widmark, J. Phys. Chem. A 108, 2851 (2004).
   d block:     B. O. Roos, R. Lindh, P.-A. Malmqvist, V. Veryazov, and P.-O. Widmark, J. Phys. Chem. A 109, 6575 (2005).
   actinides:   B. O. Roos, R. Lindh, P.-A. Malmqvist, V. Veryazov, and P.-O. Widmark, Chem. Phys. Letters 409, 295 (2005).
   lanthanides: B. O. Roos, R. Lindh, P.-A. Malmqvist, V. Veryazov, P.-O. Widmark and A. C. Borin, J. Phys. Chem. A 112, 11431 (2008).

================================================================================
                                        WARNINGS
                       Please study these warnings very carefully!
================================================================================


INFO   : the flag for use of LIBINT has been found!

================================================================================
                                       INPUT FILE
================================================================================
NAME = Ne_ano-rcc-tzp_34.25899725_.inp
|  1> ! LDA ano-rcc-tzp nori grid5 finalgrid6 verytightscf
|  2> %Pal NProcs 18 End
|  3> 
|  4> % REL
|  5>   Method ZORA
|  6>   ModelPot 1, 0, 0, 0
|  7>   velit 34.25899725
|  8> END
|  9> 
| 10> *xyz 8 1
| 11> Ne 0.0 0.0 0.0
| 12> **                         ****END OF INPUT****
================================================================================

                       ****************************
                       * Single Point Calculation *
                       ****************************

---------------------------------
CARTESIAN COORDINATES (ANGSTROEM)
---------------------------------
  Ne     0.000000    0.000000    0.000000

----------------------------
CARTESIAN COORDINATES (A.U.)
----------------------------
  NO LB      ZA    FRAG     MASS         X           Y           Z
   0 Ne   10.0000    0    20.179    0.000000    0.000000    0.000000

--------------------------------
INTERNAL COORDINATES (ANGSTROEM)
--------------------------------
 Ne     0   0   0     0.000000000000     0.00000000     0.00000000

---------------------------
INTERNAL COORDINATES (A.U.)
---------------------------
 Ne     0   0   0     0.000000000000     0.00000000     0.00000000

---------------------
BASIS SET INFORMATION
---------------------
There are 1 groups of distinct atoms

 Group   1 Type Ne  : 56s27p8d3f contracted to 4s3p2d1f pattern {14141414/999/44/3}

Atom   0Ne   basis set group =>   1


           ************************************************************
           *        Program running with 18 parallel MPI-processes    *
           *              working on a common directory               *
           ************************************************************


------------------------------------------------------------------------------
                       ORCA GTO INTEGRAL CALCULATION
                     -- ANO INTEGRAL GENERATION BRANCH --
------------------------------------------------------------------------------


Gathering ANO information                         ... done
Calculation Information:
Number of atoms                                   ... 1
Number of basis functions                         ... 30
Highest angular momentum                          ... 3
Number of primitive shells                        ... 30
Total number of shells                            ... 10
Maximum number of shells                          ... 10

Getting memory                                    ... done
Making prescreening integrals                     ... done
Gathering atom contracted prescreening            ... done
Making one-electron integrals                     ... done

Timings:

Total time                                        ...    0.1 sec
Prescreening matrix                               ...    0.0 sec
One-electron matrix                               ...    0.0 sec
Two-index integrals + Cholesky                    ...    0.0 sec


           ************************************************************
           *        Program running with 18 parallel MPI-processes    *
           *              working on a common directory               *
           ************************************************************
------------------------------------------------------------------------------
                          ORCA RELATIVISTIC HAMILTONIAN
------------------------------------------------------------------------------

Relativistic Method            ... ZORA(MP)
Treatment of potential         ... Van Wuellen
Nucleus model                  ... Point Nucleus
Speed of light used            ...  34.25899725000000


            *************************************************
            *         ZERO ORDER REGULAR APPROXIMATION      *
            *                     ZORA(MP)                  *
            *            Programmed by FN according to      *
            *                   C. van Wuellen              *
            *       J. Chem. Phys. (1998) vol 109, 392-399  *
            *************************************************

Terms included in model potential: +V(e,N)
Basis function cutoff value   ... 1.000000e-12
Loading the fitted atomic densities  (DKH4)  ... done
Calculating the cutoffs                      ... done
Number of fit functions                      ... 11
Setting up the integration grid ... done


           ************************************************************
           *        Program running with 18 parallel MPI-processes    *
           *              working on a common directory               *
           ************************************************************
-------------------------------------------------------------------------------
                                 ORCA SCF
-------------------------------------------------------------------------------

------------
SCF SETTINGS
------------
Hamiltonian:
 Density Functional     Method          .... DFT(GTOs)
 Exchange Functional    Exchange        .... Slater
   X-Alpha parameter    XAlpha          ....  0.666667
 Correlation Functional Correlation     .... VWN-5
 Gradients option       PostSCFGGA      .... off
   Density functional embedding theory  .... OFF

Relativistic Settings:
 Scalar relativistic method             .... ZORA
 Speed of light used       Velit        ....       34.2589973
Orbital energies will be scaled


General Settings:
 Integral files         IntName         .... Ne_ano-rcc-tzp_34.25899725_
 Hartree-Fock type      HFTyp           .... RHF
 Total Charge           Charge          ....    8
 Multiplicity           Mult            ....    1
 Number of Electrons    NEL             ....    2
 Basis Dimension        Dim             ....   30
 Nuclear Repulsion      ENuc            ....      0.0000000000 Eh

Convergence Acceleration:
 DIIS                   CNVDIIS         .... on
   Start iteration      DIISMaxIt       ....    12
   Startup error        DIISStart       ....  0.200000
   # of expansion vecs  DIISMaxEq       ....     5
   Bias factor          DIISBfac        ....   1.050
   Max. coefficient     DIISMaxC        ....  10.000
 Newton-Raphson         CNVNR           .... off
 SOSCF                  CNVSOSCF        .... on
   Start iteration      SOSCFMaxIt      ....   150
   Startup grad/error   SOSCFStart      ....  0.003300
 Level Shifting         CNVShift        .... on
   Level shift para.    LevelShift      ....    0.2500
   Turn off err/grad.   ShiftErr        ....    0.0010
 Zerner damping         CNVZerner       .... off
 Static damping         CNVDamp         .... on
   Fraction old density DampFac         ....    0.7000
   Max. Damping (<1)    DampMax         ....    0.9800
   Min. Damping (>=0)   DampMin         ....    0.0000
   Turn off err/grad.   DampErr         ....    0.1000
 Fernandez-Rico         CNVRico         .... off

SCF Procedure:
 Maximum # iterations   MaxIter         ....   125
 SCF integral mode      SCFMode         .... Direct
   Integral package                     .... LIBINT
 Reset frequency        DirectResetFreq ....    20
 Integral Threshold     Thresh          ....  1.000e-12 Eh
 Primitive CutOff       TCut            ....  1.000e-14 Eh

Convergence Tolerance:
 Convergence Check Mode ConvCheckMode   .... Total+1el-Energy
 Convergence forced     ConvForced      .... 0
 Energy Change          TolE            ....  1.000e-09 Eh
 1-El. energy change                    ....  1.000e-06 Eh
 Orbital Gradient       TolG            ....  2.000e-06
 Orbital Rotation angle TolX            ....  2.000e-06
 DIIS Error             TolErr          ....  1.000e-08


Diagonalization of the overlap matrix:
Smallest eigenvalue                        ... 1.000e+00
Time for diagonalization                   ...    0.001 sec
Threshold for overlap eigenvalues          ... 1.000e-08
Number of eigenvalues below threshold      ... 0
Time for construction of square roots      ...    0.001 sec
Total time needed                          ...    0.002 sec

-------------------
DFT GRID GENERATION
-------------------

General Integration Accuracy     IntAcc      ...  5.010
Radial Grid Type                 RadialGrid  ... Gauss-Chebyshev
Angular Grid (max. acc.)         AngularGrid ... Lebedev-434
Angular grid pruning method      GridPruning ... 3 (G Style)
Weight generation scheme         WeightScheme... Becke
Basis function cutoff            BFCut       ...    1.0000e-12
Integration weight cutoff        WCut        ...    1.0000e-14
Grids for H and He will be reduced by one unit

# of grid points (after initial pruning)     ...  10818 (   0.0 sec)
# of grid points (after weights+screening)   ...  10818 (   0.0 sec)
Grid point division into batches done        ...    0.1 sec
Reduced shell lists constructed in    0.1 sec

Total number of grid points                  ...    10818
Total number of batches                      ...      170
Average number of points per batch           ...       63
Average number of grid points per atom       ...    10818
Average number of shells per batch           ...     4.00 (40.00%)
Average number of basis functions per batch  ...     9.45 (31.52%)
Average number of large shells per batch     ...     2.18 (54.55%)
Average number of large basis fcns per batch ...     5.82 (61.54%)
Maximum spatial batch extension              ...  16.29, 16.29, 16.29 au
Average spatial batch extension              ...   0.85,  0.86,  0.85 au

Time for grid setup =    0.124 sec

------------------------------
INITIAL GUESS: MODEL POTENTIAL
------------------------------
Loading ZORA relativistic densities                ... done
Calculating cut-offs                               ... done
Setting up the integral package                    ... done
Initializing the effective Hamiltonian             ... done
Starting the Coulomb interaction                   ... done (   0.0 sec)
Reading the grid                                   ... done
Mapping shells                                     ... done
Starting the XC term evaluation                    ... done (   0.0 sec)
  promolecular density results
     # of electrons  =     10.000000334
     EX              =    -11.053709298
     EC              =     -0.746638772
     EX+EC           =    -11.800348070
Transforming the Hamiltonian                       ... done (   0.0 sec)
Diagonalizing the Hamiltonian                      ... done (   0.0 sec)
Back transforming the eigenvectors                 ... done (   0.0 sec)
Now organizing SCF variables                       ... done
                      ------------------
                      INITIAL GUESS DONE (   0.2 sec)
                      ------------------
--------------
SCF ITERATIONS
--------------
ITER       Energy         Delta-E        Max-DP      RMS-DP      [F,P]     Damp
               ***  Starting incremental Fock matrix formation  ***
  0    -97.0017119331   0.000000000000 0.00417958  0.00019592  0.4611689 0.7000
                      *** Initiating the SOSCF procedure ***
                      *** Re-Reading the Fockian *** 
                      *** Removing any level shift *** 
ITER      Energy       Delta-E        Grad      Rot      Max-DP    RMS-DP
  1    -97.00383164  -0.0021197104  0.000829  0.000829  0.009782  0.000457
               *** Restarting incremental Fock matrix formation ***
  2    -97.00866710  -0.0048354563  0.004022  0.000118  0.000187  0.000010
  3    -97.00866890  -0.0000018000  0.000095  0.000003  0.000004  0.000000
                 **** Energy Check signals convergence ****
              ***Rediagonalizing the Fockian in SOSCF/NRSCF***

               *****************************************************
               *                     SUCCESS                       *
               *           SCF CONVERGED AFTER   4 CYCLES          *
               *****************************************************

Setting up the final grid:

General Integration Accuracy     IntAcc      ...  5.340
Radial Grid Type                 RadialGrid  ... Gauss-Chebyshev
Angular Grid (max. acc.)         AngularGrid ... Lebedev-590
Angular grid pruning method      GridPruning ... 3 (G Style)
Weight generation scheme         WeightScheme... Becke
Basis function cutoff            BFCut       ...    1.0000e-12
Integration weight cutoff        WCut        ...    1.0000e-14
Grids for H and He will be reduced by one unit

# of grid points (after initial pruning)     ...  16840 (   0.0 sec)
# of grid points (after weights+screening)   ...  16840 (   0.0 sec)
Grid point division into batches done        ...    0.2 sec
Reduced shell lists constructed in    0.2 sec

Total number of grid points                  ...    16840
Total number of batches                      ...      264
Average number of points per batch           ...       63
Average number of grid points per atom       ...    16840
Average number of shells per batch           ...     1.12 (11.25%)
Average number of basis functions per batch  ...     3.38 (11.25%)
Average number of large shells per batch     ...     1.12 (100.00%)
Average number of large basis fcns per batch ...     3.38 (100.00%)
Maximum spatial batch extension              ...  16.63, 16.63, 16.63 au
Average spatial batch extension              ...   0.74,  0.74,  0.69 au

Final grid set up in    0.2 sec
Final integration                            ... done (   0.0 sec)
Change in XC energy                          ...    -0.000000729
Integrated number of electrons               ...     2.000000063
Previous integrated no of electrons          ...     1.999999970

----------------
TOTAL SCF ENERGY
----------------

Total Energy       :          -97.00866963 Eh           -2639.74010 eV

Components:
Nuclear Repulsion  :            0.00000000 Eh               0.00000 eV
Electronic Energy  :          -97.00866963 Eh           -2639.74010 eV
One Electron Energy:         -103.81872169 Eh           -2825.05104 eV
Two Electron Energy:            6.81005206 Eh             185.31094 eV

Virial components:
Potential Energy   :         -190.21023779 Eh           -5175.88371 eV
Kinetic Energy     :           93.20156816 Eh            2536.14360 eV
Virial Ratio       :            2.04084804


DFT components:
N(Alpha)           :        1.000000031601 electrons
N(Beta)            :        1.000000031601 electrons
N(Total)           :        2.000000063202 electrons
E(X)               :       -5.268271321896 Eh       
E(C)               :       -0.204201944413 Eh       
E(XC)              :       -5.472473266309 Eh       
DFET-embed. en.    :        0.000000000000 Eh       

---------------
SCF CONVERGENCE
---------------

  Last Energy change         ...   -9.8170e-10  Tolerance :   1.0000e-09
  Last MAX-Density change    ...    1.2227e-10  Tolerance :   1.0000e-08
  Last RMS-Density change    ...    4.4745e-12  Tolerance :   1.0000e-09
  Last Orbital Gradient      ...    2.7227e-09  Tolerance :   2.0000e-06
  Last Orbital Rotation      ...    6.3040e-11  Tolerance :   2.0000e-06

             **** THE GBW FILE WAS UPDATED (Ne_ano-rcc-tzp_34.25899725_.gbw) ****
             **** DENSITY FILE WAS UPDATED (Ne_ano-rcc-tzp_34.25899725_.scfp) ****
             **** ENERGY FILE WAS UPDATED (Ne_ano-rcc-tzp_34.25899725_.en.tmp) ****
             **** THE GBW FILE WAS UPDATED (Ne_ano-rcc-tzp_34.25899725_.gbw) ****
             **** DENSITY FILE WAS UPDATED (Ne_ano-rcc-tzp_34.25899725_.scfp) ****
----------------
ORBITAL ENERGIES
----------------

  NO   OCC          E(Eh)            E(eV) 
   0   2.0000     -43.250343     -1176.9017 
   1   0.0000      -9.307334      -253.2654 
   2   0.0000      -8.723135      -237.3686 
   3   0.0000      -8.723135      -237.3686 
   4   0.0000      -8.723135      -237.3686 
   5   0.0000      -3.923166      -106.7548 
   6   0.0000      -3.731795      -101.5473 
   7   0.0000      -3.731795      -101.5473 
   8   0.0000      -3.731795      -101.5473 
   9   0.0000      -3.601693       -98.0070 
  10   0.0000      -3.601693       -98.0070 
  11   0.0000      -3.601693       -98.0070 
  12   0.0000      -3.601693       -98.0070 
  13   0.0000      -3.601693       -98.0070 
  14   0.0000      -1.696079       -46.1527 
  15   0.0000      -1.696079       -46.1527 
  16   0.0000      -1.696079       -46.1527 
  17   0.0000      -0.516709       -14.0604 
  18   0.0000       0.563745        15.3403 
  19   0.0000       0.563745        15.3403 
  20   0.0000       0.563745        15.3403 
  21   0.0000       0.563745        15.3403 
  22   0.0000       0.563745        15.3403 
  23   0.0000       0.563745        15.3403 
  24   0.0000       0.563745        15.3403 
  25   0.0000       0.711940        19.3729 
  26   0.0000       0.711940        19.3729 
  27   0.0000       0.711940        19.3729 
  28   0.0000       0.711940        19.3729 
  29   0.0000       0.711940        19.3729 

                    ********************************
                    * MULLIKEN POPULATION ANALYSIS *
                    ********************************

-----------------------
MULLIKEN ATOMIC CHARGES
-----------------------
   0 Ne:    8.000000
Sum of atomic charges:    8.0000000

--------------------------------
MULLIKEN REDUCED ORBITAL CHARGES
--------------------------------
  0 Nes       :     2.000000  s :     2.000000
      pz      :     0.000000  p :     0.000000
      px      :     0.000000
      py      :     0.000000
      dz2     :     0.000000  d :     0.000000
      dxz     :     0.000000
      dyz     :     0.000000
      dx2y2   :     0.000000
      dxy     :     0.000000
      f0      :     0.000000  f :     0.000000
      f+1     :     0.000000
      f-1     :     0.000000
      f+2     :     0.000000
      f-2     :     0.000000
      f+3     :     0.000000
      f-3     :     0.000000


                     *******************************
                     * LOEWDIN POPULATION ANALYSIS *
                     *******************************

----------------------
LOEWDIN ATOMIC CHARGES
----------------------
   0 Ne:    8.000000

-------------------------------
LOEWDIN REDUCED ORBITAL CHARGES
-------------------------------
  0 Nes       :     2.000000  s :     2.000000
      pz      :     0.000000  p :     0.000000
      px      :     0.000000
      py      :     0.000000
      dz2     :     0.000000  d :     0.000000
      dxz     :     0.000000
      dyz     :     0.000000
      dx2y2   :     0.000000
      dxy     :     0.000000
      f0      :     0.000000  f :     0.000000
      f+1     :     0.000000
      f-1     :     0.000000
      f+2     :     0.000000
      f-2     :     0.000000
      f+3     :     0.000000
      f-3     :     0.000000


                      *****************************
                      * MAYER POPULATION ANALYSIS *
                      *****************************

  NA   - Mulliken gross atomic population
  ZA   - Total nuclear charge
  QA   - Mulliken gross atomic charge
  VA   - Mayer's total valence
  BVA  - Mayer's bonded valence
  FA   - Mayer's free valence

  ATOM       NA         ZA         QA         VA         BVA        FA
  0 Ne     2.0000    10.0000     8.0000     0.0000     0.0000     0.0000

  Mayer bond orders larger than 0.100000


--------------------------
ATOM BASIS FOR ELEMENT Ne
--------------------------
 NewGTO Ne
 S 56
    1     166165.079999999987         0.000153134468
    2      23107.524000000001         0.000634895386
    3       5060.153900000000         0.002573542576
    4       1384.612300000000         0.010123195801
    5        436.512580000000         0.035814206372
    6        153.471480000000         0.105467362373
    7         59.389087000000         0.238129765257
    8         24.861967000000         0.369050480941
    9         11.015704000000         0.305029229302
   10          4.965175000000         0.083678392361
   11          1.936503000000         0.003639507194
   12          0.765728000000         0.000956945509
   13          0.295538000000         0.000034200897
   14          0.103438000000         0.000025835570
   15     166165.079999999987         0.000000742812
   16      23107.524000000001         0.000003079370
   17       5060.153900000000         0.000012530877
   18       1384.612300000000         0.000049389654
   19        436.512580000000         0.000178104602
   20        153.471480000000         0.000541775317
   21         59.389087000000         0.001348815689
   22         24.861967000000         0.002520290560
   23         11.015704000000         0.003237483692
   24          4.965175000000         0.000152398997
   25          1.936503000000        -0.007985224907
   26          0.765728000000        -0.011316483293
   27          0.295538000000        -0.003776636159
   28          0.103438000000         0.000003855576
   29     166165.079999999987         0.000000863748
   30      23107.524000000001         0.000003552541
   31       5060.153900000000         0.000014714726
   32       1384.612300000000         0.000056537239
   33        436.512580000000         0.000212267353
   34        153.471480000000         0.000622489431
   35         59.389087000000         0.001698527310
   36         24.861967000000         0.002994745981
   37         11.015704000000         0.005495798024
   38          4.965175000000        -0.004657367710
   39          1.936503000000        -0.023939258404
   40          0.765728000000         0.008746602022
   41          0.295538000000         0.015377703844
   42          0.103438000000         0.000194427895
   43     166165.079999999987         0.000001055951
   44      23107.524000000001         0.000004122326
   45       5060.153900000000         0.000019080205
   46       1384.612300000000         0.000061331219
   47        436.512580000000         0.000293463391
   48        153.471480000000         0.000638004595
   49         59.389087000000         0.002720051450
   50         24.861967000000         0.002461309024
   51         11.015704000000         0.013608880539
   52          4.965175000000        -0.033358421036
   53          1.936503000000        -0.001633591904
   54          0.765728000000         0.042417043429
   55          0.295538000000        -0.029797547509
   56          0.103438000000        -0.001677573586
 S 55
    1     166165.079999999987        -0.000004096434
    2      23107.524000000001        -0.000016983813
    3       5060.153900000000        -0.000068843727
    4       1384.612300000000        -0.000270801245
    5        436.512580000000        -0.000958050388
    6        153.471480000000        -0.002821311923
    7         59.389087000000        -0.006370106644
    8         24.861967000000        -0.009872310243
    9         11.015704000000        -0.008159705353
   10          4.965175000000        -0.002238444583
   11          1.936503000000        -0.000097358887
   12          0.765728000000        -0.000025598837
   13          0.295538000000        -0.000000914893
   14     166165.079999999987         0.000034203264
   15      23107.524000000001         0.000141791656
   16       5060.153900000000         0.000576992562
   17       1384.612300000000         0.002274179525
   18        436.512580000000         0.008200945116
   19        153.471480000000         0.024946405634
   20         59.389087000000         0.062107117504
   21         24.861967000000         0.116048458873
   22         11.015704000000         0.149072094692
   23          4.965175000000         0.007017313412
   24          1.936503000000        -0.367685003785
   25          0.765728000000        -0.521075016785
   26          0.295538000000        -0.173897729426
   27          0.103438000000         0.000177532567
   28     166165.079999999987         0.000015569059
   29      23107.524000000001         0.000064034526
   30       5060.153900000000         0.000265232832
   31       1384.612300000000         0.001019083308
   32        436.512580000000         0.003826117437
   33        153.471480000000         0.011220367320
   34         59.389087000000         0.030615941993
   35         24.861967000000         0.053980273804
   36         11.015704000000         0.099061718082
   37          4.965175000000        -0.083949017973
   38          1.936503000000        -0.431504952835
   39          0.765728000000         0.157657435717
   40          0.295538000000         0.277182996239
   41          0.103438000000         0.003504561346
   42     166165.079999999987         0.000003643671
   43      23107.524000000001         0.000014224529
   44       5060.153900000000         0.000065838295
   45       1384.612300000000         0.000211629951
   46        436.512580000000         0.001012626909
   47        153.471480000000         0.002201503287
   48         59.389087000000         0.009385829282
   49         24.861967000000         0.008493010787
   50         11.015704000000         0.046958901993
   51          4.965175000000        -0.115106809823
   52          1.936503000000        -0.005636884083
   53          0.765728000000         0.146364558022
   54          0.295538000000        -0.102819633778
   55          0.103438000000        -0.005788647595
 S 54
    1     166165.079999999987         0.000001497893
    2      23107.524000000001         0.000006210265
    3       5060.153900000000         0.000025173252
    4       1384.612300000000         0.000099020610
    5        436.512580000000         0.000350318679
    6        153.471480000000         0.001031634951
    7         59.389087000000         0.002329279725
    8         24.861967000000         0.003609888086
    9         11.015704000000         0.002983660604
   10          4.965175000000         0.000818504913
   11          1.936503000000         0.000035600045
   12          0.765728000000         0.000009360416
   13     166165.079999999987         0.000012314536
   14      23107.524000000001         0.000051050637
   15       5060.153900000000         0.000207740278
   16       1384.612300000000         0.000818795108
   17        436.512580000000         0.002952666520
   18        153.471480000000         0.008981698532
   19         59.389087000000         0.022361033259
   20         24.861967000000         0.041782062231
   21         11.015704000000         0.053671884985
   22          4.965175000000         0.002526512015
   23          1.936503000000        -0.132381229866
   24          0.765728000000        -0.187607737233
   25          0.295538000000        -0.062610101188
   26          0.103438000000         0.000063918787
   27     166165.079999999987        -0.000042918192
   28      23107.524000000001        -0.000176519735
   29       5060.153900000000        -0.000731149776
   30       1384.612300000000        -0.002809239437
   31        436.512580000000        -0.010547204443
   32        153.471480000000        -0.030930443198
   33         59.389087000000        -0.084396938869
   34         24.861967000000        -0.148803844395
   35         11.015704000000        -0.273076875017
   36          4.965175000000         0.231416695901
   37          1.936503000000         1.189501114618
   38          0.765728000000        -0.434603807629
   39          0.295538000000        -0.764092001294
   40          0.103438000000        -0.009660792072
   41     166165.079999999987         0.000003416145
   42      23107.524000000001         0.000013336287
   43       5060.153900000000         0.000061727067
   44       1384.612300000000         0.000198414860
   45        436.512580000000         0.000949394098
   46        153.471480000000         0.002064031885
   47         59.389087000000         0.008799737442
   48         24.861967000000         0.007962670401
   49         11.015704000000         0.044026584722
   50          4.965175000000        -0.107919041964
   51          1.936503000000        -0.005284892621
   52          0.765728000000         0.137224920954
   53          0.295538000000        -0.096399130420
   54          0.103438000000        -0.005427179362
 S 55
    1     166165.079999999987         0.000002679341
    2      23107.524000000001         0.000011108544
    3       5060.153900000000         0.000045028381
    4       1384.612300000000         0.000177122041
    5        436.512580000000         0.000626628731
    6        153.471480000000         0.001845325813
    7         59.389087000000         0.004166473806
    8         24.861967000000         0.006457148102
    9         11.015704000000         0.005336990496
   10          4.965175000000         0.001464091772
   11          1.936503000000         0.000063679193
   12          0.765728000000         0.000016743343
   13          0.295538000000         0.000000598401
   14     166165.079999999987         0.000002954247
   15      23107.524000000001         0.000012247004
   16       5060.153900000000         0.000049836714
   17       1384.612300000000         0.000196428240
   18        436.512580000000         0.000708342151
   19        153.471480000000         0.002154701731
   20         59.389087000000         0.005364392592
   21         24.861967000000         0.010023480691
   22         11.015704000000         0.012875838914
   23          4.965175000000         0.000606108053
   24          1.936503000000        -0.031758142862
   25          0.765728000000        -0.045006934344
   26          0.295538000000        -0.015020109272
   27          0.103438000000         0.000015334062
   28     166165.079999999987        -0.000001569469
   29      23107.524000000001        -0.000006455123
   30       5060.153900000000        -0.000026737302
   31       1384.612300000000        -0.000102730638
   32        436.512580000000        -0.000385699072
   33        153.471480000000        -0.001131090545
   34         59.389087000000        -0.003086298473
   35         24.861967000000        -0.005441584540
   36         11.015704000000        -0.009986105584
   37          4.965175000000         0.008462641001
   38          1.936503000000         0.043498680441
   39          0.765728000000        -0.015892958749
   40          0.295538000000        -0.027941961032
   41          0.103438000000        -0.000353283996
   42     166165.079999999987        -0.000056690608
   43      23107.524000000001        -0.000221314475
   44       5060.153900000000        -0.001024355058
   45       1384.612300000000        -0.003292676540
   46        436.512580000000        -0.015755108653
   47        153.471480000000        -0.034252421273
   48         59.389087000000        -0.146030841953
   49         24.861967000000        -0.132139790594
   50         11.015704000000        -0.730617166461
   51          4.965175000000         1.790906679341
   52          1.936503000000         0.087702312056
   53          0.765728000000        -2.277235073962
   54          0.295538000000         1.599734795743
   55          0.103438000000         0.090063547572
 P 27
    1        234.945000000000         0.001482242094
    2         55.077385000000         0.011430371342
    3         17.389549000000         0.051541915593
    4          6.389537000000         0.151313584590
    5          2.542082000000         0.278627214184
    6          1.033764000000         0.330439062978
    7          0.418788000000         0.235618235212
    8          0.164627000000         0.062026927529
    9          0.057619000000         0.000544488061
   10        234.945000000000         0.000965144999
   11         55.077385000000         0.007799483972
   12         17.389549000000         0.035002803540
   13          6.389537000000         0.122202666523
   14          2.542082000000         0.207402078621
   15          1.033764000000        -0.002799670666
   16          0.418788000000        -0.262225634827
   17          0.164627000000        -0.149865179025
   18          0.057619000000        -0.002929379088
   19        234.945000000000         0.000424514775
   20         55.077385000000         0.004074560964
   21         17.389549000000         0.016759262530
   22          6.389537000000         0.078039173357
   23          2.542082000000         0.027388803181
   24          1.033764000000        -0.157037625475
   25          0.418788000000         0.022932747381
   26          0.164627000000         0.094976785845
   27          0.057619000000         0.003018508402
 P 27
    1        234.945000000000        -0.000777487162
    2         55.077385000000        -0.005995624474
    3         17.389549000000        -0.027035514535
    4          6.389537000000        -0.079369200164
    5          2.542082000000        -0.146149595183
    6          1.033764000000        -0.173326699003
    7          0.418788000000        -0.123589900559
    8          0.164627000000        -0.032535265356
    9          0.057619000000        -0.000285602790
   10        234.945000000000         0.001865259496
   11         55.077385000000         0.015073446538
   12         17.389549000000         0.067647153287
   13          6.389537000000         0.236171439955
   14          2.542082000000         0.400829613226
   15          1.033764000000        -0.005410702332
   16          0.418788000000        -0.506782769414
   17          0.164627000000        -0.289632592615
   18          0.057619000000        -0.005661379551
   19        234.945000000000         0.000676140617
   20         55.077385000000         0.006489706193
   21         17.389549000000         0.026693106522
   22          6.389537000000         0.124295920753
   23          2.542082000000         0.043623174916
   24          1.033764000000        -0.250119720796
   25          0.418788000000         0.036525847578
   26          0.164627000000         0.151273091947
   27          0.057619000000         0.004807691638
 P 27
    1        234.945000000000        -0.000034883539
    2         55.077385000000        -0.000269005857
    3         17.389549000000        -0.001213003215
    4          6.389537000000        -0.003561060207
    5          2.542082000000        -0.006557298128
    6          1.033764000000        -0.007776654033
    7          0.418788000000        -0.005545111654
    8          0.164627000000        -0.001459760695
    9          0.057619000000        -0.000012814149
   10        234.945000000000        -0.000562923249
   11         55.077385000000        -0.004549068650
   12         17.389549000000        -0.020415473233
   13          6.389537000000        -0.071275012715
   14          2.542082000000        -0.120967784185
   15          1.033764000000         0.001632914960
   16          0.418788000000         0.152943761281
   17          0.164627000000         0.087409242732
   18          0.057619000000         0.001708567723
   19        234.945000000000         0.002968248424
   20         55.077385000000         0.028489724920
   21         17.389549000000         0.117182386916
   22          6.389537000000         0.545657459004
   23          2.542082000000         0.191505164725
   24          1.033764000000        -1.098022288017
   25          0.418788000000         0.160347990960
   26          0.164627000000         0.664086886101
   27          0.057619000000         0.021105703121
 D 8
    1          6.420000000000         0.147834481194
    2          2.247000000000         0.534546788229
    3          0.786450000000         0.428670440899
    4          0.275257500000         0.043755927044
    5          6.420000000000        -0.122911567777
    6          2.247000000000        -0.127895001638
    7          0.786450000000         0.203894003606
    8          0.275257500000         0.043349222172
 D 8
    1          6.420000000000         0.037633367052
    2          2.247000000000         0.136076477730
    3          0.786450000000         0.109124149633
    4          0.275257500000         0.011138692745
    5          6.420000000000         0.482831312264
    6          2.247000000000         0.502407646322
    7          0.786450000000        -0.800953165793
    8          0.275257500000        -0.170287973748
 F 3
    1          4.190000000000         0.371284539860
    2          1.676000000000         0.601008919774
    3          0.670400000000         0.198512979925
 end
  // -----------------------------------------------
  // The basis set
  // -----------------------------------------------
  BAS[ATNO] = new BFNGauss[NSH];
  // Basis function   1 L = s
  InitBFNGauss(BAS[ATNO][  0]);
  BAS[ATNO][  0].l  = 0;
  BAS[ATNO][  0].ng = 56;
  BAS[ATNO][  0].a[  0] =    166165.079999999987;     BAS[ATNO][  0].d[  0] =         0.000153134468;
  BAS[ATNO][  0].a[  1] =     23107.524000000001;     BAS[ATNO][  0].d[  1] =         0.000634895386;
  BAS[ATNO][  0].a[  2] =      5060.153900000000;     BAS[ATNO][  0].d[  2] =         0.002573542576;
  BAS[ATNO][  0].a[  3] =      1384.612300000000;     BAS[ATNO][  0].d[  3] =         0.010123195801;
  BAS[ATNO][  0].a[  4] =       436.512580000000;     BAS[ATNO][  0].d[  4] =         0.035814206372;
  BAS[ATNO][  0].a[  5] =       153.471480000000;     BAS[ATNO][  0].d[  5] =         0.105467362373;
  BAS[ATNO][  0].a[  6] =        59.389087000000;     BAS[ATNO][  0].d[  6] =         0.238129765257;
  BAS[ATNO][  0].a[  7] =        24.861967000000;     BAS[ATNO][  0].d[  7] =         0.369050480941;
  BAS[ATNO][  0].a[  8] =        11.015704000000;     BAS[ATNO][  0].d[  8] =         0.305029229302;
  BAS[ATNO][  0].a[  9] =         4.965175000000;     BAS[ATNO][  0].d[  9] =         0.083678392361;
  BAS[ATNO][  0].a[ 10] =         1.936503000000;     BAS[ATNO][  0].d[ 10] =         0.003639507194;
  BAS[ATNO][  0].a[ 11] =         0.765728000000;     BAS[ATNO][  0].d[ 11] =         0.000956945509;
  BAS[ATNO][  0].a[ 12] =         0.295538000000;     BAS[ATNO][  0].d[ 12] =         0.000034200897;
  BAS[ATNO][  0].a[ 13] =         0.103438000000;     BAS[ATNO][  0].d[ 13] =         0.000025835570;
  BAS[ATNO][  0].a[ 14] =    166165.079999999987;     BAS[ATNO][  0].d[ 14] =         0.000000742812;
  BAS[ATNO][  0].a[ 15] =     23107.524000000001;     BAS[ATNO][  0].d[ 15] =         0.000003079370;
  BAS[ATNO][  0].a[ 16] =      5060.153900000000;     BAS[ATNO][  0].d[ 16] =         0.000012530877;
  BAS[ATNO][  0].a[ 17] =      1384.612300000000;     BAS[ATNO][  0].d[ 17] =         0.000049389654;
  BAS[ATNO][  0].a[ 18] =       436.512580000000;     BAS[ATNO][  0].d[ 18] =         0.000178104602;
  BAS[ATNO][  0].a[ 19] =       153.471480000000;     BAS[ATNO][  0].d[ 19] =         0.000541775317;
  BAS[ATNO][  0].a[ 20] =        59.389087000000;     BAS[ATNO][  0].d[ 20] =         0.001348815689;
  BAS[ATNO][  0].a[ 21] =        24.861967000000;     BAS[ATNO][  0].d[ 21] =         0.002520290560;
  BAS[ATNO][  0].a[ 22] =        11.015704000000;     BAS[ATNO][  0].d[ 22] =         0.003237483692;
  BAS[ATNO][  0].a[ 23] =         4.965175000000;     BAS[ATNO][  0].d[ 23] =         0.000152398997;
  BAS[ATNO][  0].a[ 24] =         1.936503000000;     BAS[ATNO][  0].d[ 24] =        -0.007985224907;
  BAS[ATNO][  0].a[ 25] =         0.765728000000;     BAS[ATNO][  0].d[ 25] =        -0.011316483293;
  BAS[ATNO][  0].a[ 26] =         0.295538000000;     BAS[ATNO][  0].d[ 26] =        -0.003776636159;
  BAS[ATNO][  0].a[ 27] =         0.103438000000;     BAS[ATNO][  0].d[ 27] =         0.000003855576;
  BAS[ATNO][  0].a[ 28] =    166165.079999999987;     BAS[ATNO][  0].d[ 28] =         0.000000863748;
  BAS[ATNO][  0].a[ 29] =     23107.524000000001;     BAS[ATNO][  0].d[ 29] =         0.000003552541;
  BAS[ATNO][  0].a[ 30] =      5060.153900000000;     BAS[ATNO][  0].d[ 30] =         0.000014714726;
  BAS[ATNO][  0].a[ 31] =      1384.612300000000;     BAS[ATNO][  0].d[ 31] =         0.000056537239;
  BAS[ATNO][  0].a[ 32] =       436.512580000000;     BAS[ATNO][  0].d[ 32] =         0.000212267353;
  BAS[ATNO][  0].a[ 33] =       153.471480000000;     BAS[ATNO][  0].d[ 33] =         0.000622489431;
  BAS[ATNO][  0].a[ 34] =        59.389087000000;     BAS[ATNO][  0].d[ 34] =         0.001698527310;
  BAS[ATNO][  0].a[ 35] =        24.861967000000;     BAS[ATNO][  0].d[ 35] =         0.002994745981;
  BAS[ATNO][  0].a[ 36] =        11.015704000000;     BAS[ATNO][  0].d[ 36] =         0.005495798024;
  BAS[ATNO][  0].a[ 37] =         4.965175000000;     BAS[ATNO][  0].d[ 37] =        -0.004657367710;
  BAS[ATNO][  0].a[ 38] =         1.936503000000;     BAS[ATNO][  0].d[ 38] =        -0.023939258404;
  BAS[ATNO][  0].a[ 39] =         0.765728000000;     BAS[ATNO][  0].d[ 39] =         0.008746602022;
  BAS[ATNO][  0].a[ 40] =         0.295538000000;     BAS[ATNO][  0].d[ 40] =         0.015377703844;
  BAS[ATNO][  0].a[ 41] =         0.103438000000;     BAS[ATNO][  0].d[ 41] =         0.000194427895;
  BAS[ATNO][  0].a[ 42] =    166165.079999999987;     BAS[ATNO][  0].d[ 42] =         0.000001055951;
  BAS[ATNO][  0].a[ 43] =     23107.524000000001;     BAS[ATNO][  0].d[ 43] =         0.000004122326;
  BAS[ATNO][  0].a[ 44] =      5060.153900000000;     BAS[ATNO][  0].d[ 44] =         0.000019080205;
  BAS[ATNO][  0].a[ 45] =      1384.612300000000;     BAS[ATNO][  0].d[ 45] =         0.000061331219;
  BAS[ATNO][  0].a[ 46] =       436.512580000000;     BAS[ATNO][  0].d[ 46] =         0.000293463391;
  BAS[ATNO][  0].a[ 47] =       153.471480000000;     BAS[ATNO][  0].d[ 47] =         0.000638004595;
  BAS[ATNO][  0].a[ 48] =        59.389087000000;     BAS[ATNO][  0].d[ 48] =         0.002720051450;
  BAS[ATNO][  0].a[ 49] =        24.861967000000;     BAS[ATNO][  0].d[ 49] =         0.002461309024;
  BAS[ATNO][  0].a[ 50] =        11.015704000000;     BAS[ATNO][  0].d[ 50] =         0.013608880539;
  BAS[ATNO][  0].a[ 51] =         4.965175000000;     BAS[ATNO][  0].d[ 51] =        -0.033358421036;
  BAS[ATNO][  0].a[ 52] =         1.936503000000;     BAS[ATNO][  0].d[ 52] =        -0.001633591904;
  BAS[ATNO][  0].a[ 53] =         0.765728000000;     BAS[ATNO][  0].d[ 53] =         0.042417043429;
  BAS[ATNO][  0].a[ 54] =         0.295538000000;     BAS[ATNO][  0].d[ 54] =        -0.029797547509;
  BAS[ATNO][  0].a[ 55] =         0.103438000000;     BAS[ATNO][  0].d[ 55] =        -0.001677573586;

  // Basis function   2 L = s
  InitBFNGauss(BAS[ATNO][  1]);
  BAS[ATNO][  1].l  = 0;
  BAS[ATNO][  1].ng = 55;
  BAS[ATNO][  1].a[  0] =    166165.079999999987;     BAS[ATNO][  1].d[  0] =         0.000004096434;
  BAS[ATNO][  1].a[  1] =     23107.524000000001;     BAS[ATNO][  1].d[  1] =         0.000016983813;
  BAS[ATNO][  1].a[  2] =      5060.153900000000;     BAS[ATNO][  1].d[  2] =         0.000068843727;
  BAS[ATNO][  1].a[  3] =      1384.612300000000;     BAS[ATNO][  1].d[  3] =         0.000270801245;
  BAS[ATNO][  1].a[  4] =       436.512580000000;     BAS[ATNO][  1].d[  4] =         0.000958050388;
  BAS[ATNO][  1].a[  5] =       153.471480000000;     BAS[ATNO][  1].d[  5] =         0.002821311923;
  BAS[ATNO][  1].a[  6] =        59.389087000000;     BAS[ATNO][  1].d[  6] =         0.006370106644;
  BAS[ATNO][  1].a[  7] =        24.861967000000;     BAS[ATNO][  1].d[  7] =         0.009872310243;
  BAS[ATNO][  1].a[  8] =        11.015704000000;     BAS[ATNO][  1].d[  8] =         0.008159705353;
  BAS[ATNO][  1].a[  9] =         4.965175000000;     BAS[ATNO][  1].d[  9] =         0.002238444583;
  BAS[ATNO][  1].a[ 10] =         1.936503000000;     BAS[ATNO][  1].d[ 10] =         0.000097358887;
  BAS[ATNO][  1].a[ 11] =         0.765728000000;     BAS[ATNO][  1].d[ 11] =         0.000025598837;
  BAS[ATNO][  1].a[ 12] =         0.295538000000;     BAS[ATNO][  1].d[ 12] =         0.000000914893;
  BAS[ATNO][  1].a[ 13] =    166165.079999999987;     BAS[ATNO][  1].d[ 13] =        -0.000034203264;
  BAS[ATNO][  1].a[ 14] =     23107.524000000001;     BAS[ATNO][  1].d[ 14] =        -0.000141791656;
  BAS[ATNO][  1].a[ 15] =      5060.153900000000;     BAS[ATNO][  1].d[ 15] =        -0.000576992562;
  BAS[ATNO][  1].a[ 16] =      1384.612300000000;     BAS[ATNO][  1].d[ 16] =        -0.002274179525;
  BAS[ATNO][  1].a[ 17] =       436.512580000000;     BAS[ATNO][  1].d[ 17] =        -0.008200945116;
  BAS[ATNO][  1].a[ 18] =       153.471480000000;     BAS[ATNO][  1].d[ 18] =        -0.024946405634;
  BAS[ATNO][  1].a[ 19] =        59.389087000000;     BAS[ATNO][  1].d[ 19] =        -0.062107117504;
  BAS[ATNO][  1].a[ 20] =        24.861967000000;     BAS[ATNO][  1].d[ 20] =        -0.116048458873;
  BAS[ATNO][  1].a[ 21] =        11.015704000000;     BAS[ATNO][  1].d[ 21] =        -0.149072094692;
  BAS[ATNO][  1].a[ 22] =         4.965175000000;     BAS[ATNO][  1].d[ 22] =        -0.007017313412;
  BAS[ATNO][  1].a[ 23] =         1.936503000000;     BAS[ATNO][  1].d[ 23] =         0.367685003785;
  BAS[ATNO][  1].a[ 24] =         0.765728000000;     BAS[ATNO][  1].d[ 24] =         0.521075016785;
  BAS[ATNO][  1].a[ 25] =         0.295538000000;     BAS[ATNO][  1].d[ 25] =         0.173897729426;
  BAS[ATNO][  1].a[ 26] =         0.103438000000;     BAS[ATNO][  1].d[ 26] =        -0.000177532567;
  BAS[ATNO][  1].a[ 27] =    166165.079999999987;     BAS[ATNO][  1].d[ 27] =        -0.000015569059;
  BAS[ATNO][  1].a[ 28] =     23107.524000000001;     BAS[ATNO][  1].d[ 28] =        -0.000064034526;
  BAS[ATNO][  1].a[ 29] =      5060.153900000000;     BAS[ATNO][  1].d[ 29] =        -0.000265232832;
  BAS[ATNO][  1].a[ 30] =      1384.612300000000;     BAS[ATNO][  1].d[ 30] =        -0.001019083308;
  BAS[ATNO][  1].a[ 31] =       436.512580000000;     BAS[ATNO][  1].d[ 31] =        -0.003826117437;
  BAS[ATNO][  1].a[ 32] =       153.471480000000;     BAS[ATNO][  1].d[ 32] =        -0.011220367320;
  BAS[ATNO][  1].a[ 33] =        59.389087000000;     BAS[ATNO][  1].d[ 33] =        -0.030615941993;
  BAS[ATNO][  1].a[ 34] =        24.861967000000;     BAS[ATNO][  1].d[ 34] =        -0.053980273804;
  BAS[ATNO][  1].a[ 35] =        11.015704000000;     BAS[ATNO][  1].d[ 35] =        -0.099061718082;
  BAS[ATNO][  1].a[ 36] =         4.965175000000;     BAS[ATNO][  1].d[ 36] =         0.083949017973;
  BAS[ATNO][  1].a[ 37] =         1.936503000000;     BAS[ATNO][  1].d[ 37] =         0.431504952835;
  BAS[ATNO][  1].a[ 38] =         0.765728000000;     BAS[ATNO][  1].d[ 38] =        -0.157657435717;
  BAS[ATNO][  1].a[ 39] =         0.295538000000;     BAS[ATNO][  1].d[ 39] =        -0.277182996239;
  BAS[ATNO][  1].a[ 40] =         0.103438000000;     BAS[ATNO][  1].d[ 40] =        -0.003504561346;
  BAS[ATNO][  1].a[ 41] =    166165.079999999987;     BAS[ATNO][  1].d[ 41] =        -0.000003643671;
  BAS[ATNO][  1].a[ 42] =     23107.524000000001;     BAS[ATNO][  1].d[ 42] =        -0.000014224529;
  BAS[ATNO][  1].a[ 43] =      5060.153900000000;     BAS[ATNO][  1].d[ 43] =        -0.000065838295;
  BAS[ATNO][  1].a[ 44] =      1384.612300000000;     BAS[ATNO][  1].d[ 44] =        -0.000211629951;
  BAS[ATNO][  1].a[ 45] =       436.512580000000;     BAS[ATNO][  1].d[ 45] =        -0.001012626909;
  BAS[ATNO][  1].a[ 46] =       153.471480000000;     BAS[ATNO][  1].d[ 46] =        -0.002201503287;
  BAS[ATNO][  1].a[ 47] =        59.389087000000;     BAS[ATNO][  1].d[ 47] =        -0.009385829282;
  BAS[ATNO][  1].a[ 48] =        24.861967000000;     BAS[ATNO][  1].d[ 48] =        -0.008493010787;
  BAS[ATNO][  1].a[ 49] =        11.015704000000;     BAS[ATNO][  1].d[ 49] =        -0.046958901993;
  BAS[ATNO][  1].a[ 50] =         4.965175000000;     BAS[ATNO][  1].d[ 50] =         0.115106809823;
  BAS[ATNO][  1].a[ 51] =         1.936503000000;     BAS[ATNO][  1].d[ 51] =         0.005636884083;
  BAS[ATNO][  1].a[ 52] =         0.765728000000;     BAS[ATNO][  1].d[ 52] =        -0.146364558022;
  BAS[ATNO][  1].a[ 53] =         0.295538000000;     BAS[ATNO][  1].d[ 53] =         0.102819633778;
  BAS[ATNO][  1].a[ 54] =         0.103438000000;     BAS[ATNO][  1].d[ 54] =         0.005788647595;

  // Basis function   3 L = s
  InitBFNGauss(BAS[ATNO][  2]);
  BAS[ATNO][  2].l  = 0;
  BAS[ATNO][  2].ng = 54;
  BAS[ATNO][  2].a[  0] =    166165.079999999987;     BAS[ATNO][  2].d[  0] =         0.000001497893;
  BAS[ATNO][  2].a[  1] =     23107.524000000001;     BAS[ATNO][  2].d[  1] =         0.000006210265;
  BAS[ATNO][  2].a[  2] =      5060.153900000000;     BAS[ATNO][  2].d[  2] =         0.000025173252;
  BAS[ATNO][  2].a[  3] =      1384.612300000000;     BAS[ATNO][  2].d[  3] =         0.000099020610;
  BAS[ATNO][  2].a[  4] =       436.512580000000;     BAS[ATNO][  2].d[  4] =         0.000350318679;
  BAS[ATNO][  2].a[  5] =       153.471480000000;     BAS[ATNO][  2].d[  5] =         0.001031634951;
  BAS[ATNO][  2].a[  6] =        59.389087000000;     BAS[ATNO][  2].d[  6] =         0.002329279725;
  BAS[ATNO][  2].a[  7] =        24.861967000000;     BAS[ATNO][  2].d[  7] =         0.003609888086;
  BAS[ATNO][  2].a[  8] =        11.015704000000;     BAS[ATNO][  2].d[  8] =         0.002983660604;
  BAS[ATNO][  2].a[  9] =         4.965175000000;     BAS[ATNO][  2].d[  9] =         0.000818504913;
  BAS[ATNO][  2].a[ 10] =         1.936503000000;     BAS[ATNO][  2].d[ 10] =         0.000035600045;
  BAS[ATNO][  2].a[ 11] =         0.765728000000;     BAS[ATNO][  2].d[ 11] =         0.000009360416;
  BAS[ATNO][  2].a[ 12] =    166165.079999999987;     BAS[ATNO][  2].d[ 12] =         0.000012314536;
  BAS[ATNO][  2].a[ 13] =     23107.524000000001;     BAS[ATNO][  2].d[ 13] =         0.000051050637;
  BAS[ATNO][  2].a[ 14] =      5060.153900000000;     BAS[ATNO][  2].d[ 14] =         0.000207740278;
  BAS[ATNO][  2].a[ 15] =      1384.612300000000;     BAS[ATNO][  2].d[ 15] =         0.000818795108;
  BAS[ATNO][  2].a[ 16] =       436.512580000000;     BAS[ATNO][  2].d[ 16] =         0.002952666520;
  BAS[ATNO][  2].a[ 17] =       153.471480000000;     BAS[ATNO][  2].d[ 17] =         0.008981698532;
  BAS[ATNO][  2].a[ 18] =        59.389087000000;     BAS[ATNO][  2].d[ 18] =         0.022361033259;
  BAS[ATNO][  2].a[ 19] =        24.861967000000;     BAS[ATNO][  2].d[ 19] =         0.041782062231;
  BAS[ATNO][  2].a[ 20] =        11.015704000000;     BAS[ATNO][  2].d[ 20] =         0.053671884985;
  BAS[ATNO][  2].a[ 21] =         4.965175000000;     BAS[ATNO][  2].d[ 21] =         0.002526512015;
  BAS[ATNO][  2].a[ 22] =         1.936503000000;     BAS[ATNO][  2].d[ 22] =        -0.132381229866;
  BAS[ATNO][  2].a[ 23] =         0.765728000000;     BAS[ATNO][  2].d[ 23] =        -0.187607737233;
  BAS[ATNO][  2].a[ 24] =         0.295538000000;     BAS[ATNO][  2].d[ 24] =        -0.062610101188;
  BAS[ATNO][  2].a[ 25] =         0.103438000000;     BAS[ATNO][  2].d[ 25] =         0.000063918787;
  BAS[ATNO][  2].a[ 26] =    166165.079999999987;     BAS[ATNO][  2].d[ 26] =        -0.000042918192;
  BAS[ATNO][  2].a[ 27] =     23107.524000000001;     BAS[ATNO][  2].d[ 27] =        -0.000176519735;
  BAS[ATNO][  2].a[ 28] =      5060.153900000000;     BAS[ATNO][  2].d[ 28] =        -0.000731149776;
  BAS[ATNO][  2].a[ 29] =      1384.612300000000;     BAS[ATNO][  2].d[ 29] =        -0.002809239437;
  BAS[ATNO][  2].a[ 30] =       436.512580000000;     BAS[ATNO][  2].d[ 30] =        -0.010547204443;
  BAS[ATNO][  2].a[ 31] =       153.471480000000;     BAS[ATNO][  2].d[ 31] =        -0.030930443198;
  BAS[ATNO][  2].a[ 32] =        59.389087000000;     BAS[ATNO][  2].d[ 32] =        -0.084396938869;
  BAS[ATNO][  2].a[ 33] =        24.861967000000;     BAS[ATNO][  2].d[ 33] =        -0.148803844395;
  BAS[ATNO][  2].a[ 34] =        11.015704000000;     BAS[ATNO][  2].d[ 34] =        -0.273076875017;
  BAS[ATNO][  2].a[ 35] =         4.965175000000;     BAS[ATNO][  2].d[ 35] =         0.231416695901;
  BAS[ATNO][  2].a[ 36] =         1.936503000000;     BAS[ATNO][  2].d[ 36] =         1.189501114618;
  BAS[ATNO][  2].a[ 37] =         0.765728000000;     BAS[ATNO][  2].d[ 37] =        -0.434603807629;
  BAS[ATNO][  2].a[ 38] =         0.295538000000;     BAS[ATNO][  2].d[ 38] =        -0.764092001294;
  BAS[ATNO][  2].a[ 39] =         0.103438000000;     BAS[ATNO][  2].d[ 39] =        -0.009660792072;
  BAS[ATNO][  2].a[ 40] =    166165.079999999987;     BAS[ATNO][  2].d[ 40] =         0.000003416145;
  BAS[ATNO][  2].a[ 41] =     23107.524000000001;     BAS[ATNO][  2].d[ 41] =         0.000013336287;
  BAS[ATNO][  2].a[ 42] =      5060.153900000000;     BAS[ATNO][  2].d[ 42] =         0.000061727067;
  BAS[ATNO][  2].a[ 43] =      1384.612300000000;     BAS[ATNO][  2].d[ 43] =         0.000198414860;
  BAS[ATNO][  2].a[ 44] =       436.512580000000;     BAS[ATNO][  2].d[ 44] =         0.000949394098;
  BAS[ATNO][  2].a[ 45] =       153.471480000000;     BAS[ATNO][  2].d[ 45] =         0.002064031885;
  BAS[ATNO][  2].a[ 46] =        59.389087000000;     BAS[ATNO][  2].d[ 46] =         0.008799737442;
  BAS[ATNO][  2].a[ 47] =        24.861967000000;     BAS[ATNO][  2].d[ 47] =         0.007962670401;
  BAS[ATNO][  2].a[ 48] =        11.015704000000;     BAS[ATNO][  2].d[ 48] =         0.044026584722;
  BAS[ATNO][  2].a[ 49] =         4.965175000000;     BAS[ATNO][  2].d[ 49] =        -0.107919041964;
  BAS[ATNO][  2].a[ 50] =         1.936503000000;     BAS[ATNO][  2].d[ 50] =        -0.005284892621;
  BAS[ATNO][  2].a[ 51] =         0.765728000000;     BAS[ATNO][  2].d[ 51] =         0.137224920954;
  BAS[ATNO][  2].a[ 52] =         0.295538000000;     BAS[ATNO][  2].d[ 52] =        -0.096399130420;
  BAS[ATNO][  2].a[ 53] =         0.103438000000;     BAS[ATNO][  2].d[ 53] =        -0.005427179362;

  // Basis function   4 L = s
  InitBFNGauss(BAS[ATNO][  3]);
  BAS[ATNO][  3].l  = 0;
  BAS[ATNO][  3].ng = 55;
  BAS[ATNO][  3].a[  0] =    166165.079999999987;     BAS[ATNO][  3].d[  0] =        -0.000002679341;
  BAS[ATNO][  3].a[  1] =     23107.524000000001;     BAS[ATNO][  3].d[  1] =        -0.000011108544;
  BAS[ATNO][  3].a[  2] =      5060.153900000000;     BAS[ATNO][  3].d[  2] =        -0.000045028381;
  BAS[ATNO][  3].a[  3] =      1384.612300000000;     BAS[ATNO][  3].d[  3] =        -0.000177122041;
  BAS[ATNO][  3].a[  4] =       436.512580000000;     BAS[ATNO][  3].d[  4] =        -0.000626628731;
  BAS[ATNO][  3].a[  5] =       153.471480000000;     BAS[ATNO][  3].d[  5] =        -0.001845325813;
  BAS[ATNO][  3].a[  6] =        59.389087000000;     BAS[ATNO][  3].d[  6] =        -0.004166473806;
  BAS[ATNO][  3].a[  7] =        24.861967000000;     BAS[ATNO][  3].d[  7] =        -0.006457148102;
  BAS[ATNO][  3].a[  8] =        11.015704000000;     BAS[ATNO][  3].d[  8] =        -0.005336990496;
  BAS[ATNO][  3].a[  9] =         4.965175000000;     BAS[ATNO][  3].d[  9] =        -0.001464091772;
  BAS[ATNO][  3].a[ 10] =         1.936503000000;     BAS[ATNO][  3].d[ 10] =        -0.000063679193;
  BAS[ATNO][  3].a[ 11] =         0.765728000000;     BAS[ATNO][  3].d[ 11] =        -0.000016743343;
  BAS[ATNO][  3].a[ 12] =         0.295538000000;     BAS[ATNO][  3].d[ 12] =        -0.000000598401;
  BAS[ATNO][  3].a[ 13] =    166165.079999999987;     BAS[ATNO][  3].d[ 13] =        -0.000002954247;
  BAS[ATNO][  3].a[ 14] =     23107.524000000001;     BAS[ATNO][  3].d[ 14] =        -0.000012247004;
  BAS[ATNO][  3].a[ 15] =      5060.153900000000;     BAS[ATNO][  3].d[ 15] =        -0.000049836714;
  BAS[ATNO][  3].a[ 16] =      1384.612300000000;     BAS[ATNO][  3].d[ 16] =        -0.000196428240;
  BAS[ATNO][  3].a[ 17] =       436.512580000000;     BAS[ATNO][  3].d[ 17] =        -0.000708342151;
  BAS[ATNO][  3].a[ 18] =       153.471480000000;     BAS[ATNO][  3].d[ 18] =        -0.002154701731;
  BAS[ATNO][  3].a[ 19] =        59.389087000000;     BAS[ATNO][  3].d[ 19] =        -0.005364392592;
  BAS[ATNO][  3].a[ 20] =        24.861967000000;     BAS[ATNO][  3].d[ 20] =        -0.010023480691;
  BAS[ATNO][  3].a[ 21] =        11.015704000000;     BAS[ATNO][  3].d[ 21] =        -0.012875838914;
  BAS[ATNO][  3].a[ 22] =         4.965175000000;     BAS[ATNO][  3].d[ 22] =        -0.000606108053;
  BAS[ATNO][  3].a[ 23] =         1.936503000000;     BAS[ATNO][  3].d[ 23] =         0.031758142862;
  BAS[ATNO][  3].a[ 24] =         0.765728000000;     BAS[ATNO][  3].d[ 24] =         0.045006934344;
  BAS[ATNO][  3].a[ 25] =         0.295538000000;     BAS[ATNO][  3].d[ 25] =         0.015020109272;
  BAS[ATNO][  3].a[ 26] =         0.103438000000;     BAS[ATNO][  3].d[ 26] =        -0.000015334062;
  BAS[ATNO][  3].a[ 27] =    166165.079999999987;     BAS[ATNO][  3].d[ 27] =         0.000001569469;
  BAS[ATNO][  3].a[ 28] =     23107.524000000001;     BAS[ATNO][  3].d[ 28] =         0.000006455123;
  BAS[ATNO][  3].a[ 29] =      5060.153900000000;     BAS[ATNO][  3].d[ 29] =         0.000026737302;
  BAS[ATNO][  3].a[ 30] =      1384.612300000000;     BAS[ATNO][  3].d[ 30] =         0.000102730638;
  BAS[ATNO][  3].a[ 31] =       436.512580000000;     BAS[ATNO][  3].d[ 31] =         0.000385699072;
  BAS[ATNO][  3].a[ 32] =       153.471480000000;     BAS[ATNO][  3].d[ 32] =         0.001131090545;
  BAS[ATNO][  3].a[ 33] =        59.389087000000;     BAS[ATNO][  3].d[ 33] =         0.003086298473;
  BAS[ATNO][  3].a[ 34] =        24.861967000000;     BAS[ATNO][  3].d[ 34] =         0.005441584540;
  BAS[ATNO][  3].a[ 35] =        11.015704000000;     BAS[ATNO][  3].d[ 35] =         0.009986105584;
  BAS[ATNO][  3].a[ 36] =         4.965175000000;     BAS[ATNO][  3].d[ 36] =        -0.008462641001;
  BAS[ATNO][  3].a[ 37] =         1.936503000000;     BAS[ATNO][  3].d[ 37] =        -0.043498680441;
  BAS[ATNO][  3].a[ 38] =         0.765728000000;     BAS[ATNO][  3].d[ 38] =         0.015892958749;
  BAS[ATNO][  3].a[ 39] =         0.295538000000;     BAS[ATNO][  3].d[ 39] =         0.027941961032;
  BAS[ATNO][  3].a[ 40] =         0.103438000000;     BAS[ATNO][  3].d[ 40] =         0.000353283996;
  BAS[ATNO][  3].a[ 41] =    166165.079999999987;     BAS[ATNO][  3].d[ 41] =         0.000056690608;
  BAS[ATNO][  3].a[ 42] =     23107.524000000001;     BAS[ATNO][  3].d[ 42] =         0.000221314475;
  BAS[ATNO][  3].a[ 43] =      5060.153900000000;     BAS[ATNO][  3].d[ 43] =         0.001024355058;
  BAS[ATNO][  3].a[ 44] =      1384.612300000000;     BAS[ATNO][  3].d[ 44] =         0.003292676540;
  BAS[ATNO][  3].a[ 45] =       436.512580000000;     BAS[ATNO][  3].d[ 45] =         0.015755108653;
  BAS[ATNO][  3].a[ 46] =       153.471480000000;     BAS[ATNO][  3].d[ 46] =         0.034252421273;
  BAS[ATNO][  3].a[ 47] =        59.389087000000;     BAS[ATNO][  3].d[ 47] =         0.146030841953;
  BAS[ATNO][  3].a[ 48] =        24.861967000000;     BAS[ATNO][  3].d[ 48] =         0.132139790594;
  BAS[ATNO][  3].a[ 49] =        11.015704000000;     BAS[ATNO][  3].d[ 49] =         0.730617166461;
  BAS[ATNO][  3].a[ 50] =         4.965175000000;     BAS[ATNO][  3].d[ 50] =        -1.790906679341;
  BAS[ATNO][  3].a[ 51] =         1.936503000000;     BAS[ATNO][  3].d[ 51] =        -0.087702312056;
  BAS[ATNO][  3].a[ 52] =         0.765728000000;     BAS[ATNO][  3].d[ 52] =         2.277235073962;
  BAS[ATNO][  3].a[ 53] =         0.295538000000;     BAS[ATNO][  3].d[ 53] =        -1.599734795743;
  BAS[ATNO][  3].a[ 54] =         0.103438000000;     BAS[ATNO][  3].d[ 54] =        -0.090063547572;

  // Basis function   5 L = p
  InitBFNGauss(BAS[ATNO][  4]);
  BAS[ATNO][  4].l  = 1;
  BAS[ATNO][  4].ng = 27;
  BAS[ATNO][  4].a[  0] =       234.945000000000;     BAS[ATNO][  4].d[  0] =         0.001482242094;
  BAS[ATNO][  4].a[  1] =        55.077385000000;     BAS[ATNO][  4].d[  1] =         0.011430371342;
  BAS[ATNO][  4].a[  2] =        17.389549000000;     BAS[ATNO][  4].d[  2] =         0.051541915593;
  BAS[ATNO][  4].a[  3] =         6.389537000000;     BAS[ATNO][  4].d[  3] =         0.151313584590;
  BAS[ATNO][  4].a[  4] =         2.542082000000;     BAS[ATNO][  4].d[  4] =         0.278627214184;
  BAS[ATNO][  4].a[  5] =         1.033764000000;     BAS[ATNO][  4].d[  5] =         0.330439062978;
  BAS[ATNO][  4].a[  6] =         0.418788000000;     BAS[ATNO][  4].d[  6] =         0.235618235212;
  BAS[ATNO][  4].a[  7] =         0.164627000000;     BAS[ATNO][  4].d[  7] =         0.062026927529;
  BAS[ATNO][  4].a[  8] =         0.057619000000;     BAS[ATNO][  4].d[  8] =         0.000544488061;
  BAS[ATNO][  4].a[  9] =       234.945000000000;     BAS[ATNO][  4].d[  9] =         0.000965144999;
  BAS[ATNO][  4].a[ 10] =        55.077385000000;     BAS[ATNO][  4].d[ 10] =         0.007799483972;
  BAS[ATNO][  4].a[ 11] =        17.389549000000;     BAS[ATNO][  4].d[ 11] =         0.035002803540;
  BAS[ATNO][  4].a[ 12] =         6.389537000000;     BAS[ATNO][  4].d[ 12] =         0.122202666523;
  BAS[ATNO][  4].a[ 13] =         2.542082000000;     BAS[ATNO][  4].d[ 13] =         0.207402078621;
  BAS[ATNO][  4].a[ 14] =         1.033764000000;     BAS[ATNO][  4].d[ 14] =        -0.002799670666;
  BAS[ATNO][  4].a[ 15] =         0.418788000000;     BAS[ATNO][  4].d[ 15] =        -0.262225634827;
  BAS[ATNO][  4].a[ 16] =         0.164627000000;     BAS[ATNO][  4].d[ 16] =        -0.149865179025;
  BAS[ATNO][  4].a[ 17] =         0.057619000000;     BAS[ATNO][  4].d[ 17] =        -0.002929379088;
  BAS[ATNO][  4].a[ 18] =       234.945000000000;     BAS[ATNO][  4].d[ 18] =         0.000424514775;
  BAS[ATNO][  4].a[ 19] =        55.077385000000;     BAS[ATNO][  4].d[ 19] =         0.004074560964;
  BAS[ATNO][  4].a[ 20] =        17.389549000000;     BAS[ATNO][  4].d[ 20] =         0.016759262530;
  BAS[ATNO][  4].a[ 21] =         6.389537000000;     BAS[ATNO][  4].d[ 21] =         0.078039173357;
  BAS[ATNO][  4].a[ 22] =         2.542082000000;     BAS[ATNO][  4].d[ 22] =         0.027388803181;
  BAS[ATNO][  4].a[ 23] =         1.033764000000;     BAS[ATNO][  4].d[ 23] =        -0.157037625475;
  BAS[ATNO][  4].a[ 24] =         0.418788000000;     BAS[ATNO][  4].d[ 24] =         0.022932747381;
  BAS[ATNO][  4].a[ 25] =         0.164627000000;     BAS[ATNO][  4].d[ 25] =         0.094976785845;
  BAS[ATNO][  4].a[ 26] =         0.057619000000;     BAS[ATNO][  4].d[ 26] =         0.003018508402;

  // Basis function   6 L = p
  InitBFNGauss(BAS[ATNO][  5]);
  BAS[ATNO][  5].l  = 1;
  BAS[ATNO][  5].ng = 27;
  BAS[ATNO][  5].a[  0] =       234.945000000000;     BAS[ATNO][  5].d[  0] =         0.000777487162;
  BAS[ATNO][  5].a[  1] =        55.077385000000;     BAS[ATNO][  5].d[  1] =         0.005995624474;
  BAS[ATNO][  5].a[  2] =        17.389549000000;     BAS[ATNO][  5].d[  2] =         0.027035514535;
  BAS[ATNO][  5].a[  3] =         6.389537000000;     BAS[ATNO][  5].d[  3] =         0.079369200164;
  BAS[ATNO][  5].a[  4] =         2.542082000000;     BAS[ATNO][  5].d[  4] =         0.146149595183;
  BAS[ATNO][  5].a[  5] =         1.033764000000;     BAS[ATNO][  5].d[  5] =         0.173326699003;
  BAS[ATNO][  5].a[  6] =         0.418788000000;     BAS[ATNO][  5].d[  6] =         0.123589900559;
  BAS[ATNO][  5].a[  7] =         0.164627000000;     BAS[ATNO][  5].d[  7] =         0.032535265356;
  BAS[ATNO][  5].a[  8] =         0.057619000000;     BAS[ATNO][  5].d[  8] =         0.000285602790;
  BAS[ATNO][  5].a[  9] =       234.945000000000;     BAS[ATNO][  5].d[  9] =        -0.001865259496;
  BAS[ATNO][  5].a[ 10] =        55.077385000000;     BAS[ATNO][  5].d[ 10] =        -0.015073446538;
  BAS[ATNO][  5].a[ 11] =        17.389549000000;     BAS[ATNO][  5].d[ 11] =        -0.067647153287;
  BAS[ATNO][  5].a[ 12] =         6.389537000000;     BAS[ATNO][  5].d[ 12] =        -0.236171439955;
  BAS[ATNO][  5].a[ 13] =         2.542082000000;     BAS[ATNO][  5].d[ 13] =        -0.400829613226;
  BAS[ATNO][  5].a[ 14] =         1.033764000000;     BAS[ATNO][  5].d[ 14] =         0.005410702332;
  BAS[ATNO][  5].a[ 15] =         0.418788000000;     BAS[ATNO][  5].d[ 15] =         0.506782769414;
  BAS[ATNO][  5].a[ 16] =         0.164627000000;     BAS[ATNO][  5].d[ 16] =         0.289632592615;
  BAS[ATNO][  5].a[ 17] =         0.057619000000;     BAS[ATNO][  5].d[ 17] =         0.005661379551;
  BAS[ATNO][  5].a[ 18] =       234.945000000000;     BAS[ATNO][  5].d[ 18] =        -0.000676140617;
  BAS[ATNO][  5].a[ 19] =        55.077385000000;     BAS[ATNO][  5].d[ 19] =        -0.006489706193;
  BAS[ATNO][  5].a[ 20] =        17.389549000000;     BAS[ATNO][  5].d[ 20] =        -0.026693106522;
  BAS[ATNO][  5].a[ 21] =         6.389537000000;     BAS[ATNO][  5].d[ 21] =        -0.124295920753;
  BAS[ATNO][  5].a[ 22] =         2.542082000000;     BAS[ATNO][  5].d[ 22] =        -0.043623174916;
  BAS[ATNO][  5].a[ 23] =         1.033764000000;     BAS[ATNO][  5].d[ 23] =         0.250119720796;
  BAS[ATNO][  5].a[ 24] =         0.418788000000;     BAS[ATNO][  5].d[ 24] =        -0.036525847578;
  BAS[ATNO][  5].a[ 25] =         0.164627000000;     BAS[ATNO][  5].d[ 25] =        -0.151273091947;
  BAS[ATNO][  5].a[ 26] =         0.057619000000;     BAS[ATNO][  5].d[ 26] =        -0.004807691638;

  // Basis function   7 L = p
  InitBFNGauss(BAS[ATNO][  6]);
  BAS[ATNO][  6].l  = 1;
  BAS[ATNO][  6].ng = 27;
  BAS[ATNO][  6].a[  0] =       234.945000000000;     BAS[ATNO][  6].d[  0] =         0.000034883539;
  BAS[ATNO][  6].a[  1] =        55.077385000000;     BAS[ATNO][  6].d[  1] =         0.000269005857;
  BAS[ATNO][  6].a[  2] =        17.389549000000;     BAS[ATNO][  6].d[  2] =         0.001213003215;
  BAS[ATNO][  6].a[  3] =         6.389537000000;     BAS[ATNO][  6].d[  3] =         0.003561060207;
  BAS[ATNO][  6].a[  4] =         2.542082000000;     BAS[ATNO][  6].d[  4] =         0.006557298128;
  BAS[ATNO][  6].a[  5] =         1.033764000000;     BAS[ATNO][  6].d[  5] =         0.007776654033;
  BAS[ATNO][  6].a[  6] =         0.418788000000;     BAS[ATNO][  6].d[  6] =         0.005545111654;
  BAS[ATNO][  6].a[  7] =         0.164627000000;     BAS[ATNO][  6].d[  7] =         0.001459760695;
  BAS[ATNO][  6].a[  8] =         0.057619000000;     BAS[ATNO][  6].d[  8] =         0.000012814149;
  BAS[ATNO][  6].a[  9] =       234.945000000000;     BAS[ATNO][  6].d[  9] =         0.000562923249;
  BAS[ATNO][  6].a[ 10] =        55.077385000000;     BAS[ATNO][  6].d[ 10] =         0.004549068650;
  BAS[ATNO][  6].a[ 11] =        17.389549000000;     BAS[ATNO][  6].d[ 11] =         0.020415473233;
  BAS[ATNO][  6].a[ 12] =         6.389537000000;     BAS[ATNO][  6].d[ 12] =         0.071275012715;
  BAS[ATNO][  6].a[ 13] =         2.542082000000;     BAS[ATNO][  6].d[ 13] =         0.120967784185;
  BAS[ATNO][  6].a[ 14] =         1.033764000000;     BAS[ATNO][  6].d[ 14] =        -0.001632914960;
  BAS[ATNO][  6].a[ 15] =         0.418788000000;     BAS[ATNO][  6].d[ 15] =        -0.152943761281;
  BAS[ATNO][  6].a[ 16] =         0.164627000000;     BAS[ATNO][  6].d[ 16] =        -0.087409242732;
  BAS[ATNO][  6].a[ 17] =         0.057619000000;     BAS[ATNO][  6].d[ 17] =        -0.001708567723;
  BAS[ATNO][  6].a[ 18] =       234.945000000000;     BAS[ATNO][  6].d[ 18] =        -0.002968248424;
  BAS[ATNO][  6].a[ 19] =        55.077385000000;     BAS[ATNO][  6].d[ 19] =        -0.028489724920;
  BAS[ATNO][  6].a[ 20] =        17.389549000000;     BAS[ATNO][  6].d[ 20] =        -0.117182386916;
  BAS[ATNO][  6].a[ 21] =         6.389537000000;     BAS[ATNO][  6].d[ 21] =        -0.545657459004;
  BAS[ATNO][  6].a[ 22] =         2.542082000000;     BAS[ATNO][  6].d[ 22] =        -0.191505164725;
  BAS[ATNO][  6].a[ 23] =         1.033764000000;     BAS[ATNO][  6].d[ 23] =         1.098022288017;
  BAS[ATNO][  6].a[ 24] =         0.418788000000;     BAS[ATNO][  6].d[ 24] =        -0.160347990960;
  BAS[ATNO][  6].a[ 25] =         0.164627000000;     BAS[ATNO][  6].d[ 25] =        -0.664086886101;
  BAS[ATNO][  6].a[ 26] =         0.057619000000;     BAS[ATNO][  6].d[ 26] =        -0.021105703121;

  // Basis function   8 L = d
  InitBFNGauss(BAS[ATNO][  7]);
  BAS[ATNO][  7].l  = 2;
  BAS[ATNO][  7].ng = 8;
  BAS[ATNO][  7].a[  0] =         6.420000000000;     BAS[ATNO][  7].d[  0] =         0.147834481194;
  BAS[ATNO][  7].a[  1] =         2.247000000000;     BAS[ATNO][  7].d[  1] =         0.534546788229;
  BAS[ATNO][  7].a[  2] =         0.786450000000;     BAS[ATNO][  7].d[  2] =         0.428670440899;
  BAS[ATNO][  7].a[  3] =         0.275257500000;     BAS[ATNO][  7].d[  3] =         0.043755927044;
  BAS[ATNO][  7].a[  4] =         6.420000000000;     BAS[ATNO][  7].d[  4] =        -0.122911567777;
  BAS[ATNO][  7].a[  5] =         2.247000000000;     BAS[ATNO][  7].d[  5] =        -0.127895001638;
  BAS[ATNO][  7].a[  6] =         0.786450000000;     BAS[ATNO][  7].d[  6] =         0.203894003606;
  BAS[ATNO][  7].a[  7] =         0.275257500000;     BAS[ATNO][  7].d[  7] =         0.043349222172;

  // Basis function   9 L = d
  InitBFNGauss(BAS[ATNO][  8]);
  BAS[ATNO][  8].l  = 2;
  BAS[ATNO][  8].ng = 8;
  BAS[ATNO][  8].a[  0] =         6.420000000000;     BAS[ATNO][  8].d[  0] =        -0.037633367052;
  BAS[ATNO][  8].a[  1] =         2.247000000000;     BAS[ATNO][  8].d[  1] =        -0.136076477730;
  BAS[ATNO][  8].a[  2] =         0.786450000000;     BAS[ATNO][  8].d[  2] =        -0.109124149633;
  BAS[ATNO][  8].a[  3] =         0.275257500000;     BAS[ATNO][  8].d[  3] =        -0.011138692745;
  BAS[ATNO][  8].a[  4] =         6.420000000000;     BAS[ATNO][  8].d[  4] =        -0.482831312264;
  BAS[ATNO][  8].a[  5] =         2.247000000000;     BAS[ATNO][  8].d[  5] =        -0.502407646322;
  BAS[ATNO][  8].a[  6] =         0.786450000000;     BAS[ATNO][  8].d[  6] =         0.800953165793;
  BAS[ATNO][  8].a[  7] =         0.275257500000;     BAS[ATNO][  8].d[  7] =         0.170287973748;

  // Basis function  10 L = f
  InitBFNGauss(BAS[ATNO][  9]);
  BAS[ATNO][  9].l  = 3;
  BAS[ATNO][  9].ng = 3;
  BAS[ATNO][  9].a[  0] =         4.190000000000;     BAS[ATNO][  9].d[  0] =         0.371284539860;
  BAS[ATNO][  9].a[  1] =         1.676000000000;     BAS[ATNO][  9].d[  1] =         0.601008919774;
  BAS[ATNO][  9].a[  2] =         0.670400000000;     BAS[ATNO][  9].d[  2] =         0.198512979925;

-------
TIMINGS
-------

Total SCF time: 0 days 0 hours 0 min 2 sec 

Total time                  ....       2.365 sec
Sum of individual times     ....       2.158 sec  ( 91.2%)

Fock matrix formation       ....       1.744 sec  ( 73.8%)
  XC integration            ....       0.016 sec  (  0.9% of F)
    Basis function eval.    ....       0.005 sec  ( 34.0% of XC)
    Density eval.           ....       0.001 sec  (  4.9% of XC)
    XC-Functional eval.     ....       0.001 sec  (  8.0% of XC)
    XC-Potential eval.      ....       0.001 sec  (  4.0% of XC)
Diagonalization             ....       0.000 sec  (  0.0%)
Density matrix formation    ....       0.000 sec  (  0.0%)
Population analysis         ....       0.001 sec  (  0.0%)
Initial guess               ....       0.094 sec  (  4.0%)
Orbital Transformation      ....       0.000 sec  (  0.0%)
Orbital Orthonormalization  ....       0.000 sec  (  0.0%)
DIIS solution               ....       0.000 sec  (  0.0%)
SOSCF solution              ....       0.001 sec  (  0.0%)
Grid generation             ....       0.318 sec  ( 13.4%)

-------------------------   --------------------
FINAL SINGLE POINT ENERGY       -97.008669629648
-------------------------   --------------------


                            ***************************************
                            *     ORCA property calculations      *
                            ***************************************

                                    ---------------------
                                    Active property flags
                                    ---------------------
   (+) Dipole Moment


------------------------------------------------------------------------------
                       ORCA ELECTRIC PROPERTIES CALCULATION
------------------------------------------------------------------------------

Dipole Moment Calculation                       ... on
Quadrupole Moment Calculation                   ... off
Polarizability Calculation                      ... off
GBWName                                         ... Ne_ano-rcc-tzp_34.25899725_.gbw
Electron density file                           ... Ne_ano-rcc-tzp_34.25899725_.scfp
The origin for moment calculation is the CENTER OF MASS  = ( 0.000000,  0.000000  0.000000)

-------------
DIPOLE MOMENT
-------------
                                X             Y             Z
Electronic contribution:      0.00000       0.00000       0.00000
Nuclear contribution   :      0.00000       0.00000       0.00000
                        -----------------------------------------
Total Dipole Moment    :      0.00000       0.00000       0.00000
                        -----------------------------------------
Magnitude (a.u.)       :      0.00000
Magnitude (Debye)      :      0.00000



--------------------
Rotational spectrum 
--------------------
 
Rotational constants in cm-1:     0.000000     0.000000     0.000000 
Rotational constants in MHz :     0.000000     0.000000     0.000000 

 Dipole components along the rotational axes: 
x,y,z [a.u.] :     0.000000     0.000000     0.000000 
x,y,z [Debye]:     0.000000     0.000000     0.000000 

 

Timings for individual modules:

Sum of individual times         ...        3.322 sec (=   0.055 min)
GTO integral calculation        ...        0.326 sec (=   0.005 min)   9.8 %
Relativistic integrals          ...        0.373 sec (=   0.006 min)  11.2 %
SCF iterations                  ...        2.623 sec (=   0.044 min)  79.0 %
                             ****ORCA TERMINATED NORMALLY****
TOTAL RUN TIME: 0 days 0 hours 0 minutes 3 seconds 686 msec
