
                                 *****************
                                 * O   R   C   A *
                                 *****************

           --- An Ab Initio, DFT and Semiempirical electronic structure package ---

                  #######################################################
                  #                        -***-                        #
                  #          Department of theory and spectroscopy      #
                  #               Directorship: Frank Neese             #
                  #        Max Planck Institute fuer Kohlenforschung    #
                  #                Kaiser Wilhelm Platz 1               #
                  #                 D-45470 Muelheim/Ruhr               #
                  #                      Germany                        #
                  #                                                     #
                  #                  All rights reserved                #
                  #                        -***-                        #
                  #######################################################


                         Program Version 4.2.1 -  RELEASE  -


 With contributions from (in alphabetic order):
   Daniel Aravena         : Magnetic Suceptibility
   Michael Atanasov       : Ab Initio Ligand Field Theory (pilot matlab implementation)
   Alexander A. Auer      : GIAO ZORA, VPT2
   Ute Becker             : Parallelization
   Giovanni Bistoni       : ED, misc. LED, open-shell LED, HFLD
   Martin Brehm           : Molecular dynamics
   Dmytro Bykov           : SCF Hessian
   Vijay G. Chilkuri      : MRCI spin determinant printing, contributions to CSF-ICE
   Dipayan Datta          : RHF DLPNO-CCSD density
   Achintya Kumar Dutta   : EOM-CC, STEOM-CC
   Dmitry Ganyushin       : Spin-Orbit,Spin-Spin,Magnetic field MRCI
   Miquel Garcia          : C-PCM Hessian, Gaussian charge scheme
   Yang Guo               : DLPNO-NEVPT2, CIM, IAO-localization
   Andreas Hansen         : Spin unrestricted coupled pair/coupled cluster methods
   Benjamin Helmich-Paris : CASSCF linear response (MC-RPA)
   Lee Huntington         : MR-EOM, pCC
   Robert Izsak           : Overlap fitted RIJCOSX, COSX-SCS-MP3, EOM
   Christian Kollmar      : KDIIS, OOCD, Brueckner-CCSD(T), CCSD density
   Simone Kossmann        : Meta GGA functionals, TD-DFT gradient, OOMP2, MP2 Hessian
   Martin Krupicka        : AUTO-CI
   Lucas Lang             : DCDCAS
   Dagmar Lenk            : GEPOL surface, SMD
   Dimitrios Liakos       : Extrapolation schemes; Compound Job, initial MDCI parallelization
   Dimitrios Manganas     : Further ROCIS development; embedding schemes
   Dimitrios Pantazis     : SARC Basis sets
   Taras Petrenko         : DFT Hessian,TD-DFT gradient, ASA, ECA, R-Raman, ABS, FL, XAS/XES, NRVS
   Peter Pinski           : DLPNO-MP2, DLPNO-MP2 Gradient
   Christoph Reimann      : Effective Core Potentials
   Marius Retegan         : Local ZFS, SOC
   Christoph Riplinger    : Optimizer, TS searches, QM/MM, DLPNO-CCSD(T), (RO)-DLPNO pert. Triples
   Tobias Risthaus        : Range-separated hybrids, TD-DFT gradient, RPA, STAB
   Michael Roemelt        : Original ROCIS implementation
   Masaaki Saitow         : Open-shell DLPNO-CCSD energy and density
   Barbara Sandhoefer     : DKH picture change effects
   Avijit Sen             : IP-ROCIS
   Kantharuban Sivalingam : CASSCF convergence, NEVPT2, FIC-MRCI
   Bernardo de Souza      : ESD, SOC TD-DFT
   Georgi Stoychev        : AutoAux, RI-MP2 NMR
   Willem Van den Heuvel  : Paramagnetic NMR
   Boris Wezisla          : Elementary symmetry handling
   Frank Wennmohs         : Technical directorship


 We gratefully acknowledge several colleagues who have allowed us to
 interface, adapt or use parts of their codes:
   Stefan Grimme, W. Hujo, H. Kruse,             : VdW corrections, initial TS optimization,
                  C. Bannwarth                     DFT functionals, gCP, sTDA/sTD-DF
   Ed Valeev, F. Pavosevic, A. Kumar             : LibInt (2-el integral package), F12 methods
   Garnet Chan, S. Sharma, J. Yang, R. Olivares  : DMRG
   Ulf Ekstrom                                   : XCFun DFT Library
   Mihaly Kallay                                 : mrcc  (arbitrary order and MRCC methods)
   Andreas Klamt, Michael Diedenhofen            : otool_cosmo (COSMO solvation model)
   Jiri Pittner, Ondrej Demel                    : Mk-CCSD
   Frank Weinhold                                : gennbo (NPA and NBO analysis)
   Christopher J. Cramer and Donald G. Truhlar   : smd solvation model
   Lars Goerigk                                  : TD-DFT with DH, B97 family of functionals
   V. Asgeirsson, H. Jonsson                     : NEB implementation
   FAccTs GmbH                                   : IRC, NEB, NEB-TS, Multilevel, MM, QM/MM, CI optimization
   S Lehtola, MJT Oliveira, MAL Marques          : LibXC Library


 Your calculation uses the libint2 library for the computation of 2-el integrals
 For citations please refer to: http://libint.valeyev.net

 Your ORCA version has been built with support for libXC version: 4.2.3
 For citations please refer to: https://tddft.org/programs/libxc/

 This ORCA versions uses:
   CBLAS   interface :  Fast vector & matrix operations
   LAPACKE interface :  Fast linear algebra routines
   SCALAPACK package :  Parallel linear algebra routines


----- Orbital basis set information -----
Your calculation utilizes the basis: ANO-RCC-DZP
   H, He:       P.-O. Widmark, P.-A. Malmqvist, and B. O. Roos, Theor. Chim. Acta 77, 291 (1990).
   s block:     B. O. Roos, V. Veryazov and P.-O. Widmark, Theor. Chem. Acc. 111, 345 (2004).
   p block:     B. O. Roos, R. Lindh, P.-A. Malmqvist, V. Veryazov, and P.-O. Widmark, J. Phys. Chem. A 108, 2851 (2004).
   d block:     B. O. Roos, R. Lindh, P.-A. Malmqvist, V. Veryazov, and P.-O. Widmark, J. Phys. Chem. A 109, 6575 (2005).
   actinides:   B. O. Roos, R. Lindh, P.-A. Malmqvist, V. Veryazov, and P.-O. Widmark, Chem. Phys. Letters 409, 295 (2005).
   lanthanides: B. O. Roos, R. Lindh, P.-A. Malmqvist, V. Veryazov, P.-O. Widmark and A. C. Borin, J. Phys. Chem. A 112, 11431 (2008).

================================================================================
                                        WARNINGS
                       Please study these warnings very carefully!
================================================================================


INFO   : the flag for use of LIBINT has been found!

================================================================================
                                       INPUT FILE
================================================================================
NAME = Ne_ano-rcc-dzp_68.5179945_.inp
|  1> ! LDA ano-rcc-dzp nori grid5 finalgrid6 verytightscf
|  2> %Pal NProcs 18 End
|  3> 
|  4> % REL
|  5>   Method ZORA
|  6>   ModelPot 1, 0, 0, 0
|  7>   velit 68.5179945
|  8> END
|  9> 
| 10> *xyz 8 1
| 11> Ne 0.0 0.0 0.0
| 12> **                         ****END OF INPUT****
================================================================================

                       ****************************
                       * Single Point Calculation *
                       ****************************

---------------------------------
CARTESIAN COORDINATES (ANGSTROEM)
---------------------------------
  Ne     0.000000    0.000000    0.000000

----------------------------
CARTESIAN COORDINATES (A.U.)
----------------------------
  NO LB      ZA    FRAG     MASS         X           Y           Z
   0 Ne   10.0000    0    20.179    0.000000    0.000000    0.000000

--------------------------------
INTERNAL COORDINATES (ANGSTROEM)
--------------------------------
 Ne     0   0   0     0.000000000000     0.00000000     0.00000000

---------------------------
INTERNAL COORDINATES (A.U.)
---------------------------
 Ne     0   0   0     0.000000000000     0.00000000     0.00000000

---------------------
BASIS SET INFORMATION
---------------------
There are 1 groups of distinct atoms

 Group   1 Type Ne  : 42s18p4d contracted to 3s2p1d pattern {141414/99/4}

Atom   0Ne   basis set group =>   1


           ************************************************************
           *        Program running with 18 parallel MPI-processes    *
           *              working on a common directory               *
           ************************************************************


------------------------------------------------------------------------------
                       ORCA GTO INTEGRAL CALCULATION
                     -- ANO INTEGRAL GENERATION BRANCH --
------------------------------------------------------------------------------


Gathering ANO information                         ... done
Calculation Information:
Number of atoms                                   ... 1
Number of basis functions                         ... 14
Highest angular momentum                          ... 2
Number of primitive shells                        ... 27
Total number of shells                            ... 6
Maximum number of shells                          ... 6

Getting memory                                    ... done
Making prescreening integrals                     ... done
Gathering atom contracted prescreening            ... done
Making one-electron integrals                     ... done

Timings:

Total time                                        ...    0.1 sec
Prescreening matrix                               ...    0.0 sec
One-electron matrix                               ...    0.0 sec
Two-index integrals + Cholesky                    ...    0.0 sec


           ************************************************************
           *        Program running with 18 parallel MPI-processes    *
           *              working on a common directory               *
           ************************************************************
------------------------------------------------------------------------------
                          ORCA RELATIVISTIC HAMILTONIAN
------------------------------------------------------------------------------

Relativistic Method            ... ZORA(MP)
Treatment of potential         ... Van Wuellen
Nucleus model                  ... Point Nucleus
Speed of light used            ...  68.51799450000000


            *************************************************
            *         ZERO ORDER REGULAR APPROXIMATION      *
            *                     ZORA(MP)                  *
            *            Programmed by FN according to      *
            *                   C. van Wuellen              *
            *       J. Chem. Phys. (1998) vol 109, 392-399  *
            *************************************************

Terms included in model potential: +V(e,N)
Basis function cutoff value   ... 1.000000e-12
Loading the fitted atomic densities  (DKH4)  ... done
Calculating the cutoffs                      ... done
Number of fit functions                      ... 11
Setting up the integration grid ... done


           ************************************************************
           *        Program running with 18 parallel MPI-processes    *
           *              working on a common directory               *
           ************************************************************
-------------------------------------------------------------------------------
                                 ORCA SCF
-------------------------------------------------------------------------------

------------
SCF SETTINGS
------------
Hamiltonian:
 Density Functional     Method          .... DFT(GTOs)
 Exchange Functional    Exchange        .... Slater
   X-Alpha parameter    XAlpha          ....  0.666667
 Correlation Functional Correlation     .... VWN-5
 Gradients option       PostSCFGGA      .... off
   Density functional embedding theory  .... OFF

Relativistic Settings:
 Scalar relativistic method             .... ZORA
 Speed of light used       Velit        ....       68.5179945
Orbital energies will be scaled


General Settings:
 Integral files         IntName         .... Ne_ano-rcc-dzp_68.5179945_
 Hartree-Fock type      HFTyp           .... RHF
 Total Charge           Charge          ....    8
 Multiplicity           Mult            ....    1
 Number of Electrons    NEL             ....    2
 Basis Dimension        Dim             ....   14
 Nuclear Repulsion      ENuc            ....      0.0000000000 Eh

Convergence Acceleration:
 DIIS                   CNVDIIS         .... on
   Start iteration      DIISMaxIt       ....    12
   Startup error        DIISStart       ....  0.200000
   # of expansion vecs  DIISMaxEq       ....     5
   Bias factor          DIISBfac        ....   1.050
   Max. coefficient     DIISMaxC        ....  10.000
 Newton-Raphson         CNVNR           .... off
 SOSCF                  CNVSOSCF        .... on
   Start iteration      SOSCFMaxIt      ....   150
   Startup grad/error   SOSCFStart      ....  0.003300
 Level Shifting         CNVShift        .... on
   Level shift para.    LevelShift      ....    0.2500
   Turn off err/grad.   ShiftErr        ....    0.0010
 Zerner damping         CNVZerner       .... off
 Static damping         CNVDamp         .... on
   Fraction old density DampFac         ....    0.7000
   Max. Damping (<1)    DampMax         ....    0.9800
   Min. Damping (>=0)   DampMin         ....    0.0000
   Turn off err/grad.   DampErr         ....    0.1000
 Fernandez-Rico         CNVRico         .... off

SCF Procedure:
 Maximum # iterations   MaxIter         ....   125
 SCF integral mode      SCFMode         .... Direct
   Integral package                     .... LIBINT
 Reset frequency        DirectResetFreq ....    20
 Integral Threshold     Thresh          ....  1.000e-12 Eh
 Primitive CutOff       TCut            ....  1.000e-14 Eh

Convergence Tolerance:
 Convergence Check Mode ConvCheckMode   .... Total+1el-Energy
 Convergence forced     ConvForced      .... 0
 Energy Change          TolE            ....  1.000e-09 Eh
 1-El. energy change                    ....  1.000e-06 Eh
 Orbital Gradient       TolG            ....  2.000e-06
 Orbital Rotation angle TolX            ....  2.000e-06
 DIIS Error             TolErr          ....  1.000e-08


Diagonalization of the overlap matrix:
Smallest eigenvalue                        ... 1.000e+00
Time for diagonalization                   ...    0.001 sec
Threshold for overlap eigenvalues          ... 1.000e-08
Number of eigenvalues below threshold      ... 0
Time for construction of square roots      ...    0.001 sec
Total time needed                          ...    0.002 sec

-------------------
DFT GRID GENERATION
-------------------

General Integration Accuracy     IntAcc      ...  5.010
Radial Grid Type                 RadialGrid  ... Gauss-Chebyshev
Angular Grid (max. acc.)         AngularGrid ... Lebedev-434
Angular grid pruning method      GridPruning ... 3 (G Style)
Weight generation scheme         WeightScheme... Becke
Basis function cutoff            BFCut       ...    1.0000e-12
Integration weight cutoff        WCut        ...    1.0000e-14
Grids for H and He will be reduced by one unit

# of grid points (after initial pruning)     ...  10818 (   0.0 sec)
# of grid points (after weights+screening)   ...  10818 (   0.0 sec)
Grid point division into batches done        ...    0.1 sec
Reduced shell lists constructed in    0.1 sec

Total number of grid points                  ...    10818
Total number of batches                      ...      170
Average number of points per batch           ...       63
Average number of grid points per atom       ...    10818
Average number of shells per batch           ...     2.18 (36.36%)
Average number of basis functions per batch  ...     5.82 (41.56%)
Average number of large shells per batch     ...     0.91 (41.67%)
Average number of large basis fcns per batch ...     2.73 (46.88%)
Maximum spatial batch extension              ...  16.29, 16.29, 16.29 au
Average spatial batch extension              ...   0.85,  0.86,  0.85 au

Time for grid setup =    0.123 sec

------------------------------
INITIAL GUESS: MODEL POTENTIAL
------------------------------
Loading ZORA relativistic densities                ... done
Calculating cut-offs                               ... done
Setting up the integral package                    ... done
Initializing the effective Hamiltonian             ... done
Starting the Coulomb interaction                   ... done (   0.0 sec)
Reading the grid                                   ... done
Mapping shells                                     ... done
Starting the XC term evaluation                    ... done (   0.0 sec)
  promolecular density results
     # of electrons  =     10.000000334
     EX              =    -11.053709298
     EC              =     -0.746638772
     EX+EC           =    -11.800348070
Transforming the Hamiltonian                       ... done (   0.0 sec)
Diagonalizing the Hamiltonian                      ... done (   0.0 sec)
Back transforming the eigenvectors                 ... done (   0.0 sec)
Now organizing SCF variables                       ... done
                      ------------------
                      INITIAL GUESS DONE (   0.2 sec)
                      ------------------
--------------
SCF ITERATIONS
--------------
ITER       Energy         Delta-E        Max-DP      RMS-DP      [F,P]     Damp
               ***  Starting incremental Fock matrix formation  ***
  0    -94.1802501046   0.000000000000 0.00492963  0.00045182  0.5298046 0.7000
                      *** Initiating the SOSCF procedure ***
                      *** Re-Reading the Fockian *** 
                      *** Removing any level shift *** 
ITER      Energy       Delta-E        Grad      Rot      Max-DP    RMS-DP
  1    -94.18267456  -0.0024244520  0.000921  0.000921  0.011554  0.001058
               *** Restarting incremental Fock matrix formation ***
  2    -94.18823577  -0.0055612105  0.003692  0.000112  0.000187  0.000018
  3    -94.18823686  -0.0000010890  0.000060  0.000002  0.000003  0.000000
                 **** Energy Check signals convergence ****
              ***Rediagonalizing the Fockian in SOSCF/NRSCF***

               *****************************************************
               *                     SUCCESS                       *
               *           SCF CONVERGED AFTER   4 CYCLES          *
               *****************************************************

Setting up the final grid:

General Integration Accuracy     IntAcc      ...  5.340
Radial Grid Type                 RadialGrid  ... Gauss-Chebyshev
Angular Grid (max. acc.)         AngularGrid ... Lebedev-590
Angular grid pruning method      GridPruning ... 3 (G Style)
Weight generation scheme         WeightScheme... Becke
Basis function cutoff            BFCut       ...    1.0000e-12
Integration weight cutoff        WCut        ...    1.0000e-14
Grids for H and He will be reduced by one unit

# of grid points (after initial pruning)     ...  16840 (   0.0 sec)
# of grid points (after weights+screening)   ...  16840 (   0.0 sec)
Grid point division into batches done        ...    0.2 sec
Reduced shell lists constructed in    0.2 sec

Total number of grid points                  ...    16840
Total number of batches                      ...      264
Average number of points per batch           ...       63
Average number of grid points per atom       ...    16840
Average number of shells per batch           ...     0.56 ( 9.38%)
Average number of basis functions per batch  ...     1.69 (12.05%)
Average number of large shells per batch     ...     0.56 (100.00%)
Average number of large basis fcns per batch ...     1.69 (100.00%)
Maximum spatial batch extension              ...  16.63, 16.63, 16.63 au
Average spatial batch extension              ...   0.74,  0.74,  0.69 au

Final grid set up in    0.2 sec
Final integration                            ... done (   0.0 sec)
Change in XC energy                          ...    -0.000000705
Integrated number of electrons               ...     2.000000062
Previous integrated no of electrons          ...     1.999999970

----------------
TOTAL SCF ENERGY
----------------

Total Energy       :          -94.18823756 Eh           -2562.99224 eV

Components:
Nuclear Repulsion  :            0.00000000 Eh               0.00000 eV
Electronic Energy  :          -94.18823756 Eh           -2562.99224 eV
One Electron Energy:         -100.86662420 Eh           -2744.72038 eV
Two Electron Energy:            6.67838664 Eh             181.72814 eV

Virial components:
Potential Energy   :         -187.55722905 Eh           -5103.69167 eV
Kinetic Energy     :           93.36899149 Eh            2540.69943 eV
Virial Ratio       :            2.00877428


DFT components:
N(Alpha)           :        1.000000030892 electrons
N(Beta)            :        1.000000030892 electrons
N(Total)           :        2.000000061784 electrons
E(X)               :       -5.175448608304 Eh       
E(C)               :       -0.203012429479 Eh       
E(XC)              :       -5.378461037783 Eh       
DFET-embed. en.    :        0.000000000000 Eh       

---------------
SCF CONVERGENCE
---------------

  Last Energy change         ...   -2.8092e-10  Tolerance :   1.0000e-09
  Last MAX-Density change    ...    0.0000e+00  Tolerance :   1.0000e-08
  Last RMS-Density change    ...    0.0000e+00  Tolerance :   1.0000e-09
  Last Orbital Gradient      ...    8.5797e-10  Tolerance :   2.0000e-06
  Last Orbital Rotation      ...    0.0000e+00  Tolerance :   2.0000e-06

             **** THE GBW FILE WAS UPDATED (Ne_ano-rcc-dzp_68.5179945_.gbw) ****
             **** DENSITY FILE WAS UPDATED (Ne_ano-rcc-dzp_68.5179945_.scfp) ****
             **** ENERGY FILE WAS UPDATED (Ne_ano-rcc-dzp_68.5179945_.en.tmp) ****
             **** THE GBW FILE WAS UPDATED (Ne_ano-rcc-dzp_68.5179945_.gbw) ****
             **** DENSITY FILE WAS UPDATED (Ne_ano-rcc-dzp_68.5179945_.scfp) ****
----------------
ORBITAL ENERGIES
----------------

  NO   OCC          E(Eh)            E(eV) 
   0   2.0000     -41.937480     -1141.1768 
   1   0.0000      -9.099995      -247.6234 
   2   0.0000      -8.529449      -232.0981 
   3   0.0000      -8.529449      -232.0981 
   4   0.0000      -8.529449      -232.0981 
   5   0.0000      -3.821318      -103.9833 
   6   0.0000      -3.603058       -98.0442 
   7   0.0000      -3.603058       -98.0442 
   8   0.0000      -3.603058       -98.0442 
   9   0.0000      -3.306575       -89.9765 
  10   0.0000      -3.306575       -89.9765 
  11   0.0000      -3.306575       -89.9765 
  12   0.0000      -3.306575       -89.9765 
  13   0.0000      -3.306575       -89.9765 

                    ********************************
                    * MULLIKEN POPULATION ANALYSIS *
                    ********************************

-----------------------
MULLIKEN ATOMIC CHARGES
-----------------------
   0 Ne:    8.000000
Sum of atomic charges:    8.0000000

--------------------------------
MULLIKEN REDUCED ORBITAL CHARGES
--------------------------------
  0 Nes       :     2.000000  s :     2.000000
      pz      :     0.000000  p :     0.000000
      px      :     0.000000
      py      :     0.000000
      dz2     :     0.000000  d :     0.000000
      dxz     :     0.000000
      dyz     :     0.000000
      dx2y2   :     0.000000
      dxy     :     0.000000


                     *******************************
                     * LOEWDIN POPULATION ANALYSIS *
                     *******************************

----------------------
LOEWDIN ATOMIC CHARGES
----------------------
   0 Ne:    8.000000

-------------------------------
LOEWDIN REDUCED ORBITAL CHARGES
-------------------------------
  0 Nes       :     2.000000  s :     2.000000
      pz      :     0.000000  p :     0.000000
      px      :     0.000000
      py      :     0.000000
      dz2     :     0.000000  d :     0.000000
      dxz     :     0.000000
      dyz     :     0.000000
      dx2y2   :     0.000000
      dxy     :     0.000000


                      *****************************
                      * MAYER POPULATION ANALYSIS *
                      *****************************

  NA   - Mulliken gross atomic population
  ZA   - Total nuclear charge
  QA   - Mulliken gross atomic charge
  VA   - Mayer's total valence
  BVA  - Mayer's bonded valence
  FA   - Mayer's free valence

  ATOM       NA         ZA         QA         VA         BVA        FA
  0 Ne     2.0000    10.0000     8.0000    -0.0000     0.0000    -0.0000

  Mayer bond orders larger than 0.100000


--------------------------
ATOM BASIS FOR ELEMENT Ne
--------------------------
 NewGTO Ne
 S 42
    1     166165.079999999987         0.000153210567
    2      23107.524000000001         0.000635210893
    3       5060.153900000000         0.002574821479
    4       1384.612300000000         0.010128226447
    5        436.512580000000         0.035832003971
    6        153.471480000000         0.105519773582
    7         59.389087000000         0.238248102045
    8         24.861967000000         0.369233877789
    9         11.015704000000         0.305180811273
   10          4.965175000000         0.083719975706
   11          1.936503000000         0.003641315819
   12          0.765728000000         0.000957421056
   13          0.295538000000         0.000034217893
   14          0.103438000000         0.000025848409
   15     166165.079999999987         0.000000328081
   16      23107.524000000001         0.000001360078
   17       5060.153900000000         0.000005534562
   18       1384.612300000000         0.000021814123
   19        436.512580000000         0.000078664162
   20        153.471480000000         0.000239288042
   21         59.389087000000         0.000595736746
   22         24.861967000000         0.001113146675
   23         11.015704000000         0.001429912194
   24          4.965175000000         0.000067310666
   25          1.936503000000        -0.003526865787
   26          0.765728000000        -0.004998195821
   27          0.295538000000        -0.001668041791
   28          0.103438000000         0.000001702907
   29     166165.079999999987         0.000000296996
   30      23107.524000000001         0.000001221526
   31       5060.153900000000         0.000005059595
   32       1384.612300000000         0.000019440086
   33        436.512580000000         0.000072987215
   34        153.471480000000         0.000214040310
   35         59.389087000000         0.000584031301
   36         24.861967000000         0.001029730510
   37         11.015704000000         0.001889706485
   38          4.965175000000        -0.001601415832
   39          1.936503000000        -0.008231410916
   40          0.765728000000         0.003007481441
   41          0.295538000000         0.005287557248
   42          0.103438000000         0.000066853194
 S 41
    1     166165.079999999987        -0.000001626746
    2      23107.524000000001        -0.000006744487
    3       5060.153900000000        -0.000027338714
    4       1384.612300000000        -0.000107538595
    5        436.512580000000        -0.000380453911
    6        153.471480000000        -0.001120378603
    7         59.389087000000        -0.002529649815
    8         24.861967000000        -0.003920419104
    9         11.015704000000        -0.003240322069
   10          4.965175000000        -0.000888914620
   11          1.936503000000        -0.000038662444
   12          0.765728000000        -0.000010165621
   13          0.295538000000        -0.000000363316
   14     166165.079999999987         0.000034500648
   15      23107.524000000001         0.000143024478
   16       5060.153900000000         0.000582009282
   17       1384.612300000000         0.002293952606
   18        436.512580000000         0.008272249052
   19        153.471480000000         0.025163304649
   20         59.389087000000         0.062647114038
   21         24.861967000000         0.117057453786
   22         11.015704000000         0.150368216904
   23          4.965175000000         0.007078326144
   24          1.936503000000        -0.370881877763
   25          0.765728000000        -0.525605555548
   26          0.295538000000        -0.175409700598
   27          0.103438000000         0.000179076142
   28     166165.079999999987         0.000014837676
   29      23107.524000000001         0.000061026398
   30       5060.153900000000         0.000252773083
   31       1384.612300000000         0.000971210190
   32        436.512580000000         0.003646379265
   33        153.471480000000         0.010693272073
   34         59.389087000000         0.029177707661
   35         24.861967000000         0.051444461480
   36         11.015704000000         0.094408130616
   37          4.965175000000        -0.080005374501
   38          1.936503000000        -0.411234296531
   39          0.765728000000         0.150251217846
   40          0.295538000000         0.264161868178
   41          0.103438000000         0.003339928801
 S 40
    1     166165.079999999987         0.000000494434
    2      23107.524000000001         0.000002049925
    3       5060.153900000000         0.000008309352
    4       1384.612300000000         0.000032685373
    5        436.512580000000         0.000115635488
    6        153.471480000000         0.000340528834
    7         59.389087000000         0.000768863934
    8         24.861967000000         0.001191575545
    9         11.015704000000         0.000984866269
   10          4.965175000000         0.000270177472
   11          1.936503000000         0.000011751096
   12          0.765728000000         0.000003089748
   13     166165.079999999987         0.000011848547
   14      23107.524000000001         0.000049118855
   15       5060.153900000000         0.000199879278
   16       1384.612300000000         0.000787811474
   17        436.512580000000         0.002840936077
   18        153.471480000000         0.008641826370
   19         59.389087000000         0.021514880086
   20         24.861967000000         0.040201007181
   21         11.015704000000         0.051640912834
   22          4.965175000000         0.002430907481
   23          1.936503000000        -0.127371855008
   24          0.765728000000        -0.180508562501
   25          0.295538000000        -0.060240902269
   26          0.103438000000         0.000061500067
   27     166165.079999999987        -0.000043212628
   28      23107.524000000001        -0.000177730732
   29       5060.153900000000        -0.000736165760
   30       1384.612300000000        -0.002828511958
   31        436.512580000000        -0.010619562540
   32        153.471480000000        -0.031142638572
   33         59.389087000000        -0.084975936070
   34         24.861967000000        -0.149824699068
   35         11.015704000000        -0.274950293039
   36          4.965175000000         0.233004308212
   37          1.936503000000         1.197661574287
   38          0.765728000000        -0.437585365864
   39          0.295538000000        -0.769333982056
   40          0.103438000000        -0.009727069020
 P 18
    1        234.945000000000         0.001509670481
    2         55.077385000000         0.011641886489
    3         17.389549000000         0.052495681267
    4          6.389537000000         0.154113591175
    5          2.542082000000         0.283783116323
    6          1.033764000000         0.336553725814
    7          0.418788000000         0.239978270776
    8          0.164627000000         0.063174714795
    9          0.057619000000         0.000554563628
   10        234.945000000000         0.000939818551
   11         55.077385000000         0.007594817087
   12         17.389549000000         0.034084292161
   13          6.389537000000         0.118995936535
   14          2.542082000000         0.201959624017
   15          1.033764000000        -0.002726204284
   16          0.418788000000        -0.255344550882
   17          0.164627000000        -0.145932554825
   18          0.057619000000        -0.002852509016
 P 18
    1        234.945000000000        -0.000723629609
    2         55.077385000000        -0.005580299722
    3         17.389549000000        -0.025162729069
    4          6.389537000000        -0.073871191821
    5          2.542082000000        -0.136025621501
    6          1.033764000000        -0.161320131781
    7          0.418788000000        -0.115028666441
    8          0.164627000000        -0.030281504955
    9          0.057619000000        -0.000265818711
   10        234.945000000000         0.001960694145
   11         55.077385000000         0.015844668496
   12         17.389549000000         0.071108270818
   13          6.389537000000         0.248254980375
   14          2.542082000000         0.421337769648
   15          1.033764000000        -0.005687536992
   16          0.418788000000        -0.532711942221
   17          0.164627000000        -0.304451434134
   18          0.057619000000        -0.005951039929
 D 4
    1          6.420000000000         0.152549349869
    2          2.247000000000         0.551595029526
    3          0.786450000000         0.442341979620
    4          0.275257500000         0.045151429961
 end
  // -----------------------------------------------
  // The basis set
  // -----------------------------------------------
  BAS[ATNO] = new BFNGauss[NSH];
  // Basis function   1 L = s
  InitBFNGauss(BAS[ATNO][  0]);
  BAS[ATNO][  0].l  = 0;
  BAS[ATNO][  0].ng = 42;
  BAS[ATNO][  0].a[  0] =    166165.079999999987;     BAS[ATNO][  0].d[  0] =         0.000153210567;
  BAS[ATNO][  0].a[  1] =     23107.524000000001;     BAS[ATNO][  0].d[  1] =         0.000635210893;
  BAS[ATNO][  0].a[  2] =      5060.153900000000;     BAS[ATNO][  0].d[  2] =         0.002574821479;
  BAS[ATNO][  0].a[  3] =      1384.612300000000;     BAS[ATNO][  0].d[  3] =         0.010128226447;
  BAS[ATNO][  0].a[  4] =       436.512580000000;     BAS[ATNO][  0].d[  4] =         0.035832003971;
  BAS[ATNO][  0].a[  5] =       153.471480000000;     BAS[ATNO][  0].d[  5] =         0.105519773582;
  BAS[ATNO][  0].a[  6] =        59.389087000000;     BAS[ATNO][  0].d[  6] =         0.238248102045;
  BAS[ATNO][  0].a[  7] =        24.861967000000;     BAS[ATNO][  0].d[  7] =         0.369233877789;
  BAS[ATNO][  0].a[  8] =        11.015704000000;     BAS[ATNO][  0].d[  8] =         0.305180811273;
  BAS[ATNO][  0].a[  9] =         4.965175000000;     BAS[ATNO][  0].d[  9] =         0.083719975706;
  BAS[ATNO][  0].a[ 10] =         1.936503000000;     BAS[ATNO][  0].d[ 10] =         0.003641315819;
  BAS[ATNO][  0].a[ 11] =         0.765728000000;     BAS[ATNO][  0].d[ 11] =         0.000957421056;
  BAS[ATNO][  0].a[ 12] =         0.295538000000;     BAS[ATNO][  0].d[ 12] =         0.000034217893;
  BAS[ATNO][  0].a[ 13] =         0.103438000000;     BAS[ATNO][  0].d[ 13] =         0.000025848409;
  BAS[ATNO][  0].a[ 14] =    166165.079999999987;     BAS[ATNO][  0].d[ 14] =         0.000000328081;
  BAS[ATNO][  0].a[ 15] =     23107.524000000001;     BAS[ATNO][  0].d[ 15] =         0.000001360078;
  BAS[ATNO][  0].a[ 16] =      5060.153900000000;     BAS[ATNO][  0].d[ 16] =         0.000005534562;
  BAS[ATNO][  0].a[ 17] =      1384.612300000000;     BAS[ATNO][  0].d[ 17] =         0.000021814123;
  BAS[ATNO][  0].a[ 18] =       436.512580000000;     BAS[ATNO][  0].d[ 18] =         0.000078664162;
  BAS[ATNO][  0].a[ 19] =       153.471480000000;     BAS[ATNO][  0].d[ 19] =         0.000239288042;
  BAS[ATNO][  0].a[ 20] =        59.389087000000;     BAS[ATNO][  0].d[ 20] =         0.000595736746;
  BAS[ATNO][  0].a[ 21] =        24.861967000000;     BAS[ATNO][  0].d[ 21] =         0.001113146675;
  BAS[ATNO][  0].a[ 22] =        11.015704000000;     BAS[ATNO][  0].d[ 22] =         0.001429912194;
  BAS[ATNO][  0].a[ 23] =         4.965175000000;     BAS[ATNO][  0].d[ 23] =         0.000067310666;
  BAS[ATNO][  0].a[ 24] =         1.936503000000;     BAS[ATNO][  0].d[ 24] =        -0.003526865787;
  BAS[ATNO][  0].a[ 25] =         0.765728000000;     BAS[ATNO][  0].d[ 25] =        -0.004998195821;
  BAS[ATNO][  0].a[ 26] =         0.295538000000;     BAS[ATNO][  0].d[ 26] =        -0.001668041791;
  BAS[ATNO][  0].a[ 27] =         0.103438000000;     BAS[ATNO][  0].d[ 27] =         0.000001702907;
  BAS[ATNO][  0].a[ 28] =    166165.079999999987;     BAS[ATNO][  0].d[ 28] =         0.000000296996;
  BAS[ATNO][  0].a[ 29] =     23107.524000000001;     BAS[ATNO][  0].d[ 29] =         0.000001221526;
  BAS[ATNO][  0].a[ 30] =      5060.153900000000;     BAS[ATNO][  0].d[ 30] =         0.000005059595;
  BAS[ATNO][  0].a[ 31] =      1384.612300000000;     BAS[ATNO][  0].d[ 31] =         0.000019440086;
  BAS[ATNO][  0].a[ 32] =       436.512580000000;     BAS[ATNO][  0].d[ 32] =         0.000072987215;
  BAS[ATNO][  0].a[ 33] =       153.471480000000;     BAS[ATNO][  0].d[ 33] =         0.000214040310;
  BAS[ATNO][  0].a[ 34] =        59.389087000000;     BAS[ATNO][  0].d[ 34] =         0.000584031301;
  BAS[ATNO][  0].a[ 35] =        24.861967000000;     BAS[ATNO][  0].d[ 35] =         0.001029730510;
  BAS[ATNO][  0].a[ 36] =        11.015704000000;     BAS[ATNO][  0].d[ 36] =         0.001889706485;
  BAS[ATNO][  0].a[ 37] =         4.965175000000;     BAS[ATNO][  0].d[ 37] =        -0.001601415832;
  BAS[ATNO][  0].a[ 38] =         1.936503000000;     BAS[ATNO][  0].d[ 38] =        -0.008231410916;
  BAS[ATNO][  0].a[ 39] =         0.765728000000;     BAS[ATNO][  0].d[ 39] =         0.003007481441;
  BAS[ATNO][  0].a[ 40] =         0.295538000000;     BAS[ATNO][  0].d[ 40] =         0.005287557248;
  BAS[ATNO][  0].a[ 41] =         0.103438000000;     BAS[ATNO][  0].d[ 41] =         0.000066853194;

  // Basis function   2 L = s
  InitBFNGauss(BAS[ATNO][  1]);
  BAS[ATNO][  1].l  = 0;
  BAS[ATNO][  1].ng = 41;
  BAS[ATNO][  1].a[  0] =    166165.079999999987;     BAS[ATNO][  1].d[  0] =         0.000001626746;
  BAS[ATNO][  1].a[  1] =     23107.524000000001;     BAS[ATNO][  1].d[  1] =         0.000006744487;
  BAS[ATNO][  1].a[  2] =      5060.153900000000;     BAS[ATNO][  1].d[  2] =         0.000027338714;
  BAS[ATNO][  1].a[  3] =      1384.612300000000;     BAS[ATNO][  1].d[  3] =         0.000107538595;
  BAS[ATNO][  1].a[  4] =       436.512580000000;     BAS[ATNO][  1].d[  4] =         0.000380453911;
  BAS[ATNO][  1].a[  5] =       153.471480000000;     BAS[ATNO][  1].d[  5] =         0.001120378603;
  BAS[ATNO][  1].a[  6] =        59.389087000000;     BAS[ATNO][  1].d[  6] =         0.002529649815;
  BAS[ATNO][  1].a[  7] =        24.861967000000;     BAS[ATNO][  1].d[  7] =         0.003920419104;
  BAS[ATNO][  1].a[  8] =        11.015704000000;     BAS[ATNO][  1].d[  8] =         0.003240322069;
  BAS[ATNO][  1].a[  9] =         4.965175000000;     BAS[ATNO][  1].d[  9] =         0.000888914620;
  BAS[ATNO][  1].a[ 10] =         1.936503000000;     BAS[ATNO][  1].d[ 10] =         0.000038662444;
  BAS[ATNO][  1].a[ 11] =         0.765728000000;     BAS[ATNO][  1].d[ 11] =         0.000010165621;
  BAS[ATNO][  1].a[ 12] =         0.295538000000;     BAS[ATNO][  1].d[ 12] =         0.000000363316;
  BAS[ATNO][  1].a[ 13] =    166165.079999999987;     BAS[ATNO][  1].d[ 13] =        -0.000034500648;
  BAS[ATNO][  1].a[ 14] =     23107.524000000001;     BAS[ATNO][  1].d[ 14] =        -0.000143024478;
  BAS[ATNO][  1].a[ 15] =      5060.153900000000;     BAS[ATNO][  1].d[ 15] =        -0.000582009282;
  BAS[ATNO][  1].a[ 16] =      1384.612300000000;     BAS[ATNO][  1].d[ 16] =        -0.002293952606;
  BAS[ATNO][  1].a[ 17] =       436.512580000000;     BAS[ATNO][  1].d[ 17] =        -0.008272249052;
  BAS[ATNO][  1].a[ 18] =       153.471480000000;     BAS[ATNO][  1].d[ 18] =        -0.025163304649;
  BAS[ATNO][  1].a[ 19] =        59.389087000000;     BAS[ATNO][  1].d[ 19] =        -0.062647114038;
  BAS[ATNO][  1].a[ 20] =        24.861967000000;     BAS[ATNO][  1].d[ 20] =        -0.117057453786;
  BAS[ATNO][  1].a[ 21] =        11.015704000000;     BAS[ATNO][  1].d[ 21] =        -0.150368216904;
  BAS[ATNO][  1].a[ 22] =         4.965175000000;     BAS[ATNO][  1].d[ 22] =        -0.007078326144;
  BAS[ATNO][  1].a[ 23] =         1.936503000000;     BAS[ATNO][  1].d[ 23] =         0.370881877763;
  BAS[ATNO][  1].a[ 24] =         0.765728000000;     BAS[ATNO][  1].d[ 24] =         0.525605555548;
  BAS[ATNO][  1].a[ 25] =         0.295538000000;     BAS[ATNO][  1].d[ 25] =         0.175409700598;
  BAS[ATNO][  1].a[ 26] =         0.103438000000;     BAS[ATNO][  1].d[ 26] =        -0.000179076142;
  BAS[ATNO][  1].a[ 27] =    166165.079999999987;     BAS[ATNO][  1].d[ 27] =        -0.000014837676;
  BAS[ATNO][  1].a[ 28] =     23107.524000000001;     BAS[ATNO][  1].d[ 28] =        -0.000061026398;
  BAS[ATNO][  1].a[ 29] =      5060.153900000000;     BAS[ATNO][  1].d[ 29] =        -0.000252773083;
  BAS[ATNO][  1].a[ 30] =      1384.612300000000;     BAS[ATNO][  1].d[ 30] =        -0.000971210190;
  BAS[ATNO][  1].a[ 31] =       436.512580000000;     BAS[ATNO][  1].d[ 31] =        -0.003646379265;
  BAS[ATNO][  1].a[ 32] =       153.471480000000;     BAS[ATNO][  1].d[ 32] =        -0.010693272073;
  BAS[ATNO][  1].a[ 33] =        59.389087000000;     BAS[ATNO][  1].d[ 33] =        -0.029177707661;
  BAS[ATNO][  1].a[ 34] =        24.861967000000;     BAS[ATNO][  1].d[ 34] =        -0.051444461480;
  BAS[ATNO][  1].a[ 35] =        11.015704000000;     BAS[ATNO][  1].d[ 35] =        -0.094408130616;
  BAS[ATNO][  1].a[ 36] =         4.965175000000;     BAS[ATNO][  1].d[ 36] =         0.080005374501;
  BAS[ATNO][  1].a[ 37] =         1.936503000000;     BAS[ATNO][  1].d[ 37] =         0.411234296531;
  BAS[ATNO][  1].a[ 38] =         0.765728000000;     BAS[ATNO][  1].d[ 38] =        -0.150251217846;
  BAS[ATNO][  1].a[ 39] =         0.295538000000;     BAS[ATNO][  1].d[ 39] =        -0.264161868178;
  BAS[ATNO][  1].a[ 40] =         0.103438000000;     BAS[ATNO][  1].d[ 40] =        -0.003339928801;

  // Basis function   3 L = s
  InitBFNGauss(BAS[ATNO][  2]);
  BAS[ATNO][  2].l  = 0;
  BAS[ATNO][  2].ng = 40;
  BAS[ATNO][  2].a[  0] =    166165.079999999987;     BAS[ATNO][  2].d[  0] =         0.000000494434;
  BAS[ATNO][  2].a[  1] =     23107.524000000001;     BAS[ATNO][  2].d[  1] =         0.000002049925;
  BAS[ATNO][  2].a[  2] =      5060.153900000000;     BAS[ATNO][  2].d[  2] =         0.000008309352;
  BAS[ATNO][  2].a[  3] =      1384.612300000000;     BAS[ATNO][  2].d[  3] =         0.000032685373;
  BAS[ATNO][  2].a[  4] =       436.512580000000;     BAS[ATNO][  2].d[  4] =         0.000115635488;
  BAS[ATNO][  2].a[  5] =       153.471480000000;     BAS[ATNO][  2].d[  5] =         0.000340528834;
  BAS[ATNO][  2].a[  6] =        59.389087000000;     BAS[ATNO][  2].d[  6] =         0.000768863934;
  BAS[ATNO][  2].a[  7] =        24.861967000000;     BAS[ATNO][  2].d[  7] =         0.001191575545;
  BAS[ATNO][  2].a[  8] =        11.015704000000;     BAS[ATNO][  2].d[  8] =         0.000984866269;
  BAS[ATNO][  2].a[  9] =         4.965175000000;     BAS[ATNO][  2].d[  9] =         0.000270177472;
  BAS[ATNO][  2].a[ 10] =         1.936503000000;     BAS[ATNO][  2].d[ 10] =         0.000011751096;
  BAS[ATNO][  2].a[ 11] =         0.765728000000;     BAS[ATNO][  2].d[ 11] =         0.000003089748;
  BAS[ATNO][  2].a[ 12] =    166165.079999999987;     BAS[ATNO][  2].d[ 12] =         0.000011848547;
  BAS[ATNO][  2].a[ 13] =     23107.524000000001;     BAS[ATNO][  2].d[ 13] =         0.000049118855;
  BAS[ATNO][  2].a[ 14] =      5060.153900000000;     BAS[ATNO][  2].d[ 14] =         0.000199879278;
  BAS[ATNO][  2].a[ 15] =      1384.612300000000;     BAS[ATNO][  2].d[ 15] =         0.000787811474;
  BAS[ATNO][  2].a[ 16] =       436.512580000000;     BAS[ATNO][  2].d[ 16] =         0.002840936077;
  BAS[ATNO][  2].a[ 17] =       153.471480000000;     BAS[ATNO][  2].d[ 17] =         0.008641826370;
  BAS[ATNO][  2].a[ 18] =        59.389087000000;     BAS[ATNO][  2].d[ 18] =         0.021514880086;
  BAS[ATNO][  2].a[ 19] =        24.861967000000;     BAS[ATNO][  2].d[ 19] =         0.040201007181;
  BAS[ATNO][  2].a[ 20] =        11.015704000000;     BAS[ATNO][  2].d[ 20] =         0.051640912834;
  BAS[ATNO][  2].a[ 21] =         4.965175000000;     BAS[ATNO][  2].d[ 21] =         0.002430907481;
  BAS[ATNO][  2].a[ 22] =         1.936503000000;     BAS[ATNO][  2].d[ 22] =        -0.127371855008;
  BAS[ATNO][  2].a[ 23] =         0.765728000000;     BAS[ATNO][  2].d[ 23] =        -0.180508562501;
  BAS[ATNO][  2].a[ 24] =         0.295538000000;     BAS[ATNO][  2].d[ 24] =        -0.060240902269;
  BAS[ATNO][  2].a[ 25] =         0.103438000000;     BAS[ATNO][  2].d[ 25] =         0.000061500067;
  BAS[ATNO][  2].a[ 26] =    166165.079999999987;     BAS[ATNO][  2].d[ 26] =        -0.000043212628;
  BAS[ATNO][  2].a[ 27] =     23107.524000000001;     BAS[ATNO][  2].d[ 27] =        -0.000177730732;
  BAS[ATNO][  2].a[ 28] =      5060.153900000000;     BAS[ATNO][  2].d[ 28] =        -0.000736165760;
  BAS[ATNO][  2].a[ 29] =      1384.612300000000;     BAS[ATNO][  2].d[ 29] =        -0.002828511958;
  BAS[ATNO][  2].a[ 30] =       436.512580000000;     BAS[ATNO][  2].d[ 30] =        -0.010619562540;
  BAS[ATNO][  2].a[ 31] =       153.471480000000;     BAS[ATNO][  2].d[ 31] =        -0.031142638572;
  BAS[ATNO][  2].a[ 32] =        59.389087000000;     BAS[ATNO][  2].d[ 32] =        -0.084975936070;
  BAS[ATNO][  2].a[ 33] =        24.861967000000;     BAS[ATNO][  2].d[ 33] =        -0.149824699068;
  BAS[ATNO][  2].a[ 34] =        11.015704000000;     BAS[ATNO][  2].d[ 34] =        -0.274950293039;
  BAS[ATNO][  2].a[ 35] =         4.965175000000;     BAS[ATNO][  2].d[ 35] =         0.233004308212;
  BAS[ATNO][  2].a[ 36] =         1.936503000000;     BAS[ATNO][  2].d[ 36] =         1.197661574287;
  BAS[ATNO][  2].a[ 37] =         0.765728000000;     BAS[ATNO][  2].d[ 37] =        -0.437585365864;
  BAS[ATNO][  2].a[ 38] =         0.295538000000;     BAS[ATNO][  2].d[ 38] =        -0.769333982056;
  BAS[ATNO][  2].a[ 39] =         0.103438000000;     BAS[ATNO][  2].d[ 39] =        -0.009727069020;

  // Basis function   4 L = p
  InitBFNGauss(BAS[ATNO][  3]);
  BAS[ATNO][  3].l  = 1;
  BAS[ATNO][  3].ng = 18;
  BAS[ATNO][  3].a[  0] =       234.945000000000;     BAS[ATNO][  3].d[  0] =         0.001509670481;
  BAS[ATNO][  3].a[  1] =        55.077385000000;     BAS[ATNO][  3].d[  1] =         0.011641886489;
  BAS[ATNO][  3].a[  2] =        17.389549000000;     BAS[ATNO][  3].d[  2] =         0.052495681267;
  BAS[ATNO][  3].a[  3] =         6.389537000000;     BAS[ATNO][  3].d[  3] =         0.154113591175;
  BAS[ATNO][  3].a[  4] =         2.542082000000;     BAS[ATNO][  3].d[  4] =         0.283783116323;
  BAS[ATNO][  3].a[  5] =         1.033764000000;     BAS[ATNO][  3].d[  5] =         0.336553725814;
  BAS[ATNO][  3].a[  6] =         0.418788000000;     BAS[ATNO][  3].d[  6] =         0.239978270776;
  BAS[ATNO][  3].a[  7] =         0.164627000000;     BAS[ATNO][  3].d[  7] =         0.063174714795;
  BAS[ATNO][  3].a[  8] =         0.057619000000;     BAS[ATNO][  3].d[  8] =         0.000554563628;
  BAS[ATNO][  3].a[  9] =       234.945000000000;     BAS[ATNO][  3].d[  9] =         0.000939818551;
  BAS[ATNO][  3].a[ 10] =        55.077385000000;     BAS[ATNO][  3].d[ 10] =         0.007594817087;
  BAS[ATNO][  3].a[ 11] =        17.389549000000;     BAS[ATNO][  3].d[ 11] =         0.034084292161;
  BAS[ATNO][  3].a[ 12] =         6.389537000000;     BAS[ATNO][  3].d[ 12] =         0.118995936535;
  BAS[ATNO][  3].a[ 13] =         2.542082000000;     BAS[ATNO][  3].d[ 13] =         0.201959624017;
  BAS[ATNO][  3].a[ 14] =         1.033764000000;     BAS[ATNO][  3].d[ 14] =        -0.002726204284;
  BAS[ATNO][  3].a[ 15] =         0.418788000000;     BAS[ATNO][  3].d[ 15] =        -0.255344550882;
  BAS[ATNO][  3].a[ 16] =         0.164627000000;     BAS[ATNO][  3].d[ 16] =        -0.145932554825;
  BAS[ATNO][  3].a[ 17] =         0.057619000000;     BAS[ATNO][  3].d[ 17] =        -0.002852509016;

  // Basis function   5 L = p
  InitBFNGauss(BAS[ATNO][  4]);
  BAS[ATNO][  4].l  = 1;
  BAS[ATNO][  4].ng = 18;
  BAS[ATNO][  4].a[  0] =       234.945000000000;     BAS[ATNO][  4].d[  0] =         0.000723629609;
  BAS[ATNO][  4].a[  1] =        55.077385000000;     BAS[ATNO][  4].d[  1] =         0.005580299722;
  BAS[ATNO][  4].a[  2] =        17.389549000000;     BAS[ATNO][  4].d[  2] =         0.025162729069;
  BAS[ATNO][  4].a[  3] =         6.389537000000;     BAS[ATNO][  4].d[  3] =         0.073871191821;
  BAS[ATNO][  4].a[  4] =         2.542082000000;     BAS[ATNO][  4].d[  4] =         0.136025621501;
  BAS[ATNO][  4].a[  5] =         1.033764000000;     BAS[ATNO][  4].d[  5] =         0.161320131781;
  BAS[ATNO][  4].a[  6] =         0.418788000000;     BAS[ATNO][  4].d[  6] =         0.115028666441;
  BAS[ATNO][  4].a[  7] =         0.164627000000;     BAS[ATNO][  4].d[  7] =         0.030281504955;
  BAS[ATNO][  4].a[  8] =         0.057619000000;     BAS[ATNO][  4].d[  8] =         0.000265818711;
  BAS[ATNO][  4].a[  9] =       234.945000000000;     BAS[ATNO][  4].d[  9] =        -0.001960694145;
  BAS[ATNO][  4].a[ 10] =        55.077385000000;     BAS[ATNO][  4].d[ 10] =        -0.015844668496;
  BAS[ATNO][  4].a[ 11] =        17.389549000000;     BAS[ATNO][  4].d[ 11] =        -0.071108270818;
  BAS[ATNO][  4].a[ 12] =         6.389537000000;     BAS[ATNO][  4].d[ 12] =        -0.248254980375;
  BAS[ATNO][  4].a[ 13] =         2.542082000000;     BAS[ATNO][  4].d[ 13] =        -0.421337769648;
  BAS[ATNO][  4].a[ 14] =         1.033764000000;     BAS[ATNO][  4].d[ 14] =         0.005687536992;
  BAS[ATNO][  4].a[ 15] =         0.418788000000;     BAS[ATNO][  4].d[ 15] =         0.532711942221;
  BAS[ATNO][  4].a[ 16] =         0.164627000000;     BAS[ATNO][  4].d[ 16] =         0.304451434134;
  BAS[ATNO][  4].a[ 17] =         0.057619000000;     BAS[ATNO][  4].d[ 17] =         0.005951039929;

  // Basis function   6 L = d
  InitBFNGauss(BAS[ATNO][  5]);
  BAS[ATNO][  5].l  = 2;
  BAS[ATNO][  5].ng = 4;
  BAS[ATNO][  5].a[  0] =         6.420000000000;     BAS[ATNO][  5].d[  0] =         0.152549349869;
  BAS[ATNO][  5].a[  1] =         2.247000000000;     BAS[ATNO][  5].d[  1] =         0.551595029526;
  BAS[ATNO][  5].a[  2] =         0.786450000000;     BAS[ATNO][  5].d[  2] =         0.442341979620;
  BAS[ATNO][  5].a[  3] =         0.275257500000;     BAS[ATNO][  5].d[  3] =         0.045151429961;

-------
TIMINGS
-------

Total SCF time: 0 days 0 hours 0 min 1 sec 

Total time                  ....       1.609 sec
Sum of individual times     ....       1.388 sec  ( 86.3%)

Fock matrix formation       ....       0.978 sec  ( 60.8%)
  XC integration            ....       0.013 sec  (  1.3% of F)
    Basis function eval.    ....       0.004 sec  ( 27.8% of XC)
    Density eval.           ....       0.001 sec  (  3.9% of XC)
    XC-Functional eval.     ....       0.001 sec  (  9.3% of XC)
    XC-Potential eval.      ....       0.000 sec  (  1.5% of XC)
Diagonalization             ....       0.000 sec  (  0.0%)
Density matrix formation    ....       0.000 sec  (  0.0%)
Population analysis         ....       0.000 sec  (  0.0%)
Initial guess               ....       0.093 sec  (  5.8%)
Orbital Transformation      ....       0.000 sec  (  0.0%)
Orbital Orthonormalization  ....       0.000 sec  (  0.0%)
DIIS solution               ....       0.000 sec  (  0.0%)
SOSCF solution              ....       0.000 sec  (  0.0%)
Grid generation             ....       0.316 sec  ( 19.6%)

-------------------------   --------------------
FINAL SINGLE POINT ENERGY       -94.188237561362
-------------------------   --------------------


                            ***************************************
                            *     ORCA property calculations      *
                            ***************************************

                                    ---------------------
                                    Active property flags
                                    ---------------------
   (+) Dipole Moment


------------------------------------------------------------------------------
                       ORCA ELECTRIC PROPERTIES CALCULATION
------------------------------------------------------------------------------

Dipole Moment Calculation                       ... on
Quadrupole Moment Calculation                   ... off
Polarizability Calculation                      ... off
GBWName                                         ... Ne_ano-rcc-dzp_68.5179945_.gbw
Electron density file                           ... Ne_ano-rcc-dzp_68.5179945_.scfp
The origin for moment calculation is the CENTER OF MASS  = ( 0.000000,  0.000000  0.000000)

-------------
DIPOLE MOMENT
-------------
                                X             Y             Z
Electronic contribution:     -0.00000      -0.00000      -0.00000
Nuclear contribution   :      0.00000       0.00000       0.00000
                        -----------------------------------------
Total Dipole Moment    :     -0.00000      -0.00000      -0.00000
                        -----------------------------------------
Magnitude (a.u.)       :      0.00000
Magnitude (Debye)      :      0.00000



--------------------
Rotational spectrum 
--------------------
 
Rotational constants in cm-1:     0.000000     0.000000     0.000000 
Rotational constants in MHz :     0.000000     0.000000     0.000000 

 Dipole components along the rotational axes: 
x,y,z [a.u.] :    -0.000000    -0.000000    -0.000000 
x,y,z [Debye]:    -0.000000    -0.000000    -0.000000 

 

Timings for individual modules:

Sum of individual times         ...        2.575 sec (=   0.043 min)
GTO integral calculation        ...        0.337 sec (=   0.006 min)  13.1 %
Relativistic integrals          ...        0.361 sec (=   0.006 min)  14.0 %
SCF iterations                  ...        1.878 sec (=   0.031 min)  72.9 %
                             ****ORCA TERMINATED NORMALLY****
TOTAL RUN TIME: 0 days 0 hours 0 minutes 2 seconds 909 msec
