
                                 *****************
                                 * O   R   C   A *
                                 *****************

           --- An Ab Initio, DFT and Semiempirical electronic structure package ---

                  #######################################################
                  #                        -***-                        #
                  #          Department of theory and spectroscopy      #
                  #               Directorship: Frank Neese             #
                  #        Max Planck Institute fuer Kohlenforschung    #
                  #                Kaiser Wilhelm Platz 1               #
                  #                 D-45470 Muelheim/Ruhr               #
                  #                      Germany                        #
                  #                                                     #
                  #                  All rights reserved                #
                  #                        -***-                        #
                  #######################################################


                         Program Version 4.2.1 -  RELEASE  -


 With contributions from (in alphabetic order):
   Daniel Aravena         : Magnetic Suceptibility
   Michael Atanasov       : Ab Initio Ligand Field Theory (pilot matlab implementation)
   Alexander A. Auer      : GIAO ZORA, VPT2
   Ute Becker             : Parallelization
   Giovanni Bistoni       : ED, misc. LED, open-shell LED, HFLD
   Martin Brehm           : Molecular dynamics
   Dmytro Bykov           : SCF Hessian
   Vijay G. Chilkuri      : MRCI spin determinant printing, contributions to CSF-ICE
   Dipayan Datta          : RHF DLPNO-CCSD density
   Achintya Kumar Dutta   : EOM-CC, STEOM-CC
   Dmitry Ganyushin       : Spin-Orbit,Spin-Spin,Magnetic field MRCI
   Miquel Garcia          : C-PCM Hessian, Gaussian charge scheme
   Yang Guo               : DLPNO-NEVPT2, CIM, IAO-localization
   Andreas Hansen         : Spin unrestricted coupled pair/coupled cluster methods
   Benjamin Helmich-Paris : CASSCF linear response (MC-RPA)
   Lee Huntington         : MR-EOM, pCC
   Robert Izsak           : Overlap fitted RIJCOSX, COSX-SCS-MP3, EOM
   Christian Kollmar      : KDIIS, OOCD, Brueckner-CCSD(T), CCSD density
   Simone Kossmann        : Meta GGA functionals, TD-DFT gradient, OOMP2, MP2 Hessian
   Martin Krupicka        : AUTO-CI
   Lucas Lang             : DCDCAS
   Dagmar Lenk            : GEPOL surface, SMD
   Dimitrios Liakos       : Extrapolation schemes; Compound Job, initial MDCI parallelization
   Dimitrios Manganas     : Further ROCIS development; embedding schemes
   Dimitrios Pantazis     : SARC Basis sets
   Taras Petrenko         : DFT Hessian,TD-DFT gradient, ASA, ECA, R-Raman, ABS, FL, XAS/XES, NRVS
   Peter Pinski           : DLPNO-MP2, DLPNO-MP2 Gradient
   Christoph Reimann      : Effective Core Potentials
   Marius Retegan         : Local ZFS, SOC
   Christoph Riplinger    : Optimizer, TS searches, QM/MM, DLPNO-CCSD(T), (RO)-DLPNO pert. Triples
   Tobias Risthaus        : Range-separated hybrids, TD-DFT gradient, RPA, STAB
   Michael Roemelt        : Original ROCIS implementation
   Masaaki Saitow         : Open-shell DLPNO-CCSD energy and density
   Barbara Sandhoefer     : DKH picture change effects
   Avijit Sen             : IP-ROCIS
   Kantharuban Sivalingam : CASSCF convergence, NEVPT2, FIC-MRCI
   Bernardo de Souza      : ESD, SOC TD-DFT
   Georgi Stoychev        : AutoAux, RI-MP2 NMR
   Willem Van den Heuvel  : Paramagnetic NMR
   Boris Wezisla          : Elementary symmetry handling
   Frank Wennmohs         : Technical directorship


 We gratefully acknowledge several colleagues who have allowed us to
 interface, adapt or use parts of their codes:
   Stefan Grimme, W. Hujo, H. Kruse,             : VdW corrections, initial TS optimization,
                  C. Bannwarth                     DFT functionals, gCP, sTDA/sTD-DF
   Ed Valeev, F. Pavosevic, A. Kumar             : LibInt (2-el integral package), F12 methods
   Garnet Chan, S. Sharma, J. Yang, R. Olivares  : DMRG
   Ulf Ekstrom                                   : XCFun DFT Library
   Mihaly Kallay                                 : mrcc  (arbitrary order and MRCC methods)
   Andreas Klamt, Michael Diedenhofen            : otool_cosmo (COSMO solvation model)
   Jiri Pittner, Ondrej Demel                    : Mk-CCSD
   Frank Weinhold                                : gennbo (NPA and NBO analysis)
   Christopher J. Cramer and Donald G. Truhlar   : smd solvation model
   Lars Goerigk                                  : TD-DFT with DH, B97 family of functionals
   V. Asgeirsson, H. Jonsson                     : NEB implementation
   FAccTs GmbH                                   : IRC, NEB, NEB-TS, Multilevel, MM, QM/MM, CI optimization
   S Lehtola, MJT Oliveira, MAL Marques          : LibXC Library


 Your calculation uses the libint2 library for the computation of 2-el integrals
 For citations please refer to: http://libint.valeyev.net

 Your ORCA version has been built with support for libXC version: 4.2.3
 For citations please refer to: https://tddft.org/programs/libxc/

 This ORCA versions uses:
   CBLAS   interface :  Fast vector & matrix operations
   LAPACKE interface :  Fast linear algebra routines
   SCALAPACK package :  Parallel linear algebra routines


----- Orbital basis set information -----
Your calculation utilizes the basis: ANO-RCC-DZP
   H, He:       P.-O. Widmark, P.-A. Malmqvist, and B. O. Roos, Theor. Chim. Acta 77, 291 (1990).
   s block:     B. O. Roos, V. Veryazov and P.-O. Widmark, Theor. Chem. Acc. 111, 345 (2004).
   p block:     B. O. Roos, R. Lindh, P.-A. Malmqvist, V. Veryazov, and P.-O. Widmark, J. Phys. Chem. A 108, 2851 (2004).
   d block:     B. O. Roos, R. Lindh, P.-A. Malmqvist, V. Veryazov, and P.-O. Widmark, J. Phys. Chem. A 109, 6575 (2005).
   actinides:   B. O. Roos, R. Lindh, P.-A. Malmqvist, V. Veryazov, and P.-O. Widmark, Chem. Phys. Letters 409, 295 (2005).
   lanthanides: B. O. Roos, R. Lindh, P.-A. Malmqvist, V. Veryazov, P.-O. Widmark and A. C. Borin, J. Phys. Chem. A 112, 11431 (2008).

================================================================================
                                        WARNINGS
                       Please study these warnings very carefully!
================================================================================


INFO   : the flag for use of LIBINT has been found!

================================================================================
                                       INPUT FILE
================================================================================
NAME = Ne_ano-rcc-dzp_137.035989_.inp
|  1> ! LDA ano-rcc-dzp nori grid5 finalgrid6 verytightscf
|  2> %Pal NProcs 18 End
|  3> 
|  4> % REL
|  5>   Method ZORA
|  6>   ModelPot 1, 0, 0, 0
|  7>   velit 137.035989
|  8> END
|  9> 
| 10> *xyz 8 1
| 11> Ne 0.0 0.0 0.0
| 12> **                         ****END OF INPUT****
================================================================================

                       ****************************
                       * Single Point Calculation *
                       ****************************

---------------------------------
CARTESIAN COORDINATES (ANGSTROEM)
---------------------------------
  Ne     0.000000    0.000000    0.000000

----------------------------
CARTESIAN COORDINATES (A.U.)
----------------------------
  NO LB      ZA    FRAG     MASS         X           Y           Z
   0 Ne   10.0000    0    20.179    0.000000    0.000000    0.000000

--------------------------------
INTERNAL COORDINATES (ANGSTROEM)
--------------------------------
 Ne     0   0   0     0.000000000000     0.00000000     0.00000000

---------------------------
INTERNAL COORDINATES (A.U.)
---------------------------
 Ne     0   0   0     0.000000000000     0.00000000     0.00000000

---------------------
BASIS SET INFORMATION
---------------------
There are 1 groups of distinct atoms

 Group   1 Type Ne  : 42s18p4d contracted to 3s2p1d pattern {141414/99/4}

Atom   0Ne   basis set group =>   1


           ************************************************************
           *        Program running with 18 parallel MPI-processes    *
           *              working on a common directory               *
           ************************************************************


------------------------------------------------------------------------------
                       ORCA GTO INTEGRAL CALCULATION
                     -- ANO INTEGRAL GENERATION BRANCH --
------------------------------------------------------------------------------


Gathering ANO information                         ... done
Calculation Information:
Number of atoms                                   ... 1
Number of basis functions                         ... 14
Highest angular momentum                          ... 2
Number of primitive shells                        ... 27
Total number of shells                            ... 6
Maximum number of shells                          ... 6

Getting memory                                    ... done
Making prescreening integrals                     ... done
Gathering atom contracted prescreening            ... done
Making one-electron integrals                     ... done

Timings:

Total time                                        ...    0.1 sec
Prescreening matrix                               ...    0.0 sec
One-electron matrix                               ...    0.0 sec
Two-index integrals + Cholesky                    ...    0.0 sec


           ************************************************************
           *        Program running with 18 parallel MPI-processes    *
           *              working on a common directory               *
           ************************************************************
------------------------------------------------------------------------------
                          ORCA RELATIVISTIC HAMILTONIAN
------------------------------------------------------------------------------

Relativistic Method            ... ZORA(MP)
Treatment of potential         ... Van Wuellen
Nucleus model                  ... Point Nucleus
Speed of light used            ... 137.03598900000000


            *************************************************
            *         ZERO ORDER REGULAR APPROXIMATION      *
            *                     ZORA(MP)                  *
            *            Programmed by FN according to      *
            *                   C. van Wuellen              *
            *       J. Chem. Phys. (1998) vol 109, 392-399  *
            *************************************************

Terms included in model potential: +V(e,N)
Basis function cutoff value   ... 1.000000e-12
Loading the fitted atomic densities  (DKH4)  ... done
Calculating the cutoffs                      ... done
Number of fit functions                      ... 11
Setting up the integration grid ... done


           ************************************************************
           *        Program running with 18 parallel MPI-processes    *
           *              working on a common directory               *
           ************************************************************
-------------------------------------------------------------------------------
                                 ORCA SCF
-------------------------------------------------------------------------------

------------
SCF SETTINGS
------------
Hamiltonian:
 Density Functional     Method          .... DFT(GTOs)
 Exchange Functional    Exchange        .... Slater
   X-Alpha parameter    XAlpha          ....  0.666667
 Correlation Functional Correlation     .... VWN-5
 Gradients option       PostSCFGGA      .... off
   Density functional embedding theory  .... OFF

Relativistic Settings:
 Scalar relativistic method             .... ZORA
 Speed of light used       Velit        ....       137.035989
Orbital energies will be scaled


General Settings:
 Integral files         IntName         .... Ne_ano-rcc-dzp_137.035989_
 Hartree-Fock type      HFTyp           .... RHF
 Total Charge           Charge          ....    8
 Multiplicity           Mult            ....    1
 Number of Electrons    NEL             ....    2
 Basis Dimension        Dim             ....   14
 Nuclear Repulsion      ENuc            ....      0.0000000000 Eh

Convergence Acceleration:
 DIIS                   CNVDIIS         .... on
   Start iteration      DIISMaxIt       ....    12
   Startup error        DIISStart       ....  0.200000
   # of expansion vecs  DIISMaxEq       ....     5
   Bias factor          DIISBfac        ....   1.050
   Max. coefficient     DIISMaxC        ....  10.000
 Newton-Raphson         CNVNR           .... off
 SOSCF                  CNVSOSCF        .... on
   Start iteration      SOSCFMaxIt      ....   150
   Startup grad/error   SOSCFStart      ....  0.003300
 Level Shifting         CNVShift        .... on
   Level shift para.    LevelShift      ....    0.2500
   Turn off err/grad.   ShiftErr        ....    0.0010
 Zerner damping         CNVZerner       .... off
 Static damping         CNVDamp         .... on
   Fraction old density DampFac         ....    0.7000
   Max. Damping (<1)    DampMax         ....    0.9800
   Min. Damping (>=0)   DampMin         ....    0.0000
   Turn off err/grad.   DampErr         ....    0.1000
 Fernandez-Rico         CNVRico         .... off

SCF Procedure:
 Maximum # iterations   MaxIter         ....   125
 SCF integral mode      SCFMode         .... Direct
   Integral package                     .... LIBINT
 Reset frequency        DirectResetFreq ....    20
 Integral Threshold     Thresh          ....  1.000e-12 Eh
 Primitive CutOff       TCut            ....  1.000e-14 Eh

Convergence Tolerance:
 Convergence Check Mode ConvCheckMode   .... Total+1el-Energy
 Convergence forced     ConvForced      .... 0
 Energy Change          TolE            ....  1.000e-09 Eh
 1-El. energy change                    ....  1.000e-06 Eh
 Orbital Gradient       TolG            ....  2.000e-06
 Orbital Rotation angle TolX            ....  2.000e-06
 DIIS Error             TolErr          ....  1.000e-08


Diagonalization of the overlap matrix:
Smallest eigenvalue                        ... 1.000e+00
Time for diagonalization                   ...    0.001 sec
Threshold for overlap eigenvalues          ... 1.000e-08
Number of eigenvalues below threshold      ... 0
Time for construction of square roots      ...    0.001 sec
Total time needed                          ...    0.002 sec

-------------------
DFT GRID GENERATION
-------------------

General Integration Accuracy     IntAcc      ...  5.010
Radial Grid Type                 RadialGrid  ... Gauss-Chebyshev
Angular Grid (max. acc.)         AngularGrid ... Lebedev-434
Angular grid pruning method      GridPruning ... 3 (G Style)
Weight generation scheme         WeightScheme... Becke
Basis function cutoff            BFCut       ...    1.0000e-12
Integration weight cutoff        WCut        ...    1.0000e-14
Grids for H and He will be reduced by one unit

# of grid points (after initial pruning)     ...  10818 (   0.0 sec)
# of grid points (after weights+screening)   ...  10818 (   0.0 sec)
Grid point division into batches done        ...    0.1 sec
Reduced shell lists constructed in    0.1 sec

Total number of grid points                  ...    10818
Total number of batches                      ...      170
Average number of points per batch           ...       63
Average number of grid points per atom       ...    10818
Average number of shells per batch           ...     2.18 (36.36%)
Average number of basis functions per batch  ...     5.82 (41.56%)
Average number of large shells per batch     ...     0.91 (41.67%)
Average number of large basis fcns per batch ...     2.73 (46.88%)
Maximum spatial batch extension              ...  16.29, 16.29, 16.29 au
Average spatial batch extension              ...   0.85,  0.86,  0.85 au

Time for grid setup =    0.128 sec

------------------------------
INITIAL GUESS: MODEL POTENTIAL
------------------------------
Loading ZORA relativistic densities                ... done
Calculating cut-offs                               ... done
Setting up the integral package                    ... done
Initializing the effective Hamiltonian             ... done
Starting the Coulomb interaction                   ... done (   0.0 sec)
Reading the grid                                   ... done
Mapping shells                                     ... done
Starting the XC term evaluation                    ... done (   0.0 sec)
  promolecular density results
     # of electrons  =     10.000000334
     EX              =    -11.053709298
     EC              =     -0.746638772
     EX+EC           =    -11.800348070
Transforming the Hamiltonian                       ... done (   0.0 sec)
Diagonalizing the Hamiltonian                      ... done (   0.0 sec)
Back transforming the eigenvectors                 ... done (   0.0 sec)
Now organizing SCF variables                       ... done
                      ------------------
                      INITIAL GUESS DONE (   0.2 sec)
                      ------------------
--------------
SCF ITERATIONS
--------------
ITER       Energy         Delta-E        Max-DP      RMS-DP      [F,P]     Damp
               ***  Starting incremental Fock matrix formation  ***
  0    -93.4359537293   0.000000000000 0.00516255  0.00047828  0.5510065 0.7000
                      *** Initiating the SOSCF procedure ***
                      *** Re-Reading the Fockian *** 
                      *** Removing any level shift *** 
ITER      Energy       Delta-E        Grad      Rot      Max-DP    RMS-DP
  1    -93.43865056  -0.0026968349  0.000889  0.000889  0.012097  0.001119
               *** Restarting incremental Fock matrix formation ***
  2    -93.44483081  -0.0061802469  0.004060  0.000125  0.000208  0.000020
  3    -93.44483215  -0.0000013397  0.000069  0.000002  0.000003  0.000000
                 **** Energy Check signals convergence ****
              ***Rediagonalizing the Fockian in SOSCF/NRSCF***

               *****************************************************
               *                     SUCCESS                       *
               *           SCF CONVERGED AFTER   4 CYCLES          *
               *****************************************************

Setting up the final grid:

General Integration Accuracy     IntAcc      ...  5.340
Radial Grid Type                 RadialGrid  ... Gauss-Chebyshev
Angular Grid (max. acc.)         AngularGrid ... Lebedev-590
Angular grid pruning method      GridPruning ... 3 (G Style)
Weight generation scheme         WeightScheme... Becke
Basis function cutoff            BFCut       ...    1.0000e-12
Integration weight cutoff        WCut        ...    1.0000e-14
Grids for H and He will be reduced by one unit

# of grid points (after initial pruning)     ...  16840 (   0.0 sec)
# of grid points (after weights+screening)   ...  16840 (   0.0 sec)
Grid point division into batches done        ...    0.2 sec
Reduced shell lists constructed in    0.2 sec

Total number of grid points                  ...    16840
Total number of batches                      ...      264
Average number of points per batch           ...       63
Average number of grid points per atom       ...    16840
Average number of shells per batch           ...     0.56 ( 9.38%)
Average number of basis functions per batch  ...     1.69 (12.05%)
Average number of large shells per batch     ...     0.56 (100.00%)
Average number of large basis fcns per batch ...     1.69 (100.00%)
Maximum spatial batch extension              ...  16.63, 16.63, 16.63 au
Average spatial batch extension              ...   0.74,  0.74,  0.69 au

Final grid set up in    0.2 sec
Final integration                            ... done (   0.0 sec)
Change in XC energy                          ...    -0.000000702
Integrated number of electrons               ...     2.000000062
Previous integrated no of electrons          ...     1.999999970

----------------
TOTAL SCF ENERGY
----------------

Total Energy       :          -93.44483285 Eh           -2542.76317 eV

Components:
Nuclear Repulsion  :            0.00000000 Eh               0.00000 eV
Electronic Energy  :          -93.44483285 Eh           -2542.76317 eV
One Electron Energy:         -100.10314049 Eh           -2723.94494 eV
Two Electron Energy:            6.65830764 Eh             181.18176 eV

Virial components:
Potential Energy   :         -187.17421628 Eh           -5093.26936 eV
Kinetic Energy     :           93.72938343 Eh            2550.50619 eV
Virial Ratio       :            1.99696413


DFT components:
N(Alpha)           :        1.000000030792 electrons
N(Beta)            :        1.000000030792 electrons
N(Total)           :        2.000000061585 electrons
E(X)               :       -5.161618094779 Eh       
E(C)               :       -0.202819459976 Eh       
E(XC)              :       -5.364437554755 Eh       
DFET-embed. en.    :        0.000000000000 Eh       

---------------
SCF CONVERGENCE
---------------

  Last Energy change         ...   -3.8018e-10  Tolerance :   1.0000e-09
  Last MAX-Density change    ...    0.0000e+00  Tolerance :   1.0000e-08
  Last RMS-Density change    ...    0.0000e+00  Tolerance :   1.0000e-09
  Last Orbital Gradient      ...    9.3367e-10  Tolerance :   2.0000e-06
  Last Orbital Rotation      ...    0.0000e+00  Tolerance :   2.0000e-06

             **** THE GBW FILE WAS UPDATED (Ne_ano-rcc-dzp_137.035989_.gbw) ****
             **** DENSITY FILE WAS UPDATED (Ne_ano-rcc-dzp_137.035989_.scfp) ****
             **** ENERGY FILE WAS UPDATED (Ne_ano-rcc-dzp_137.035989_.en.tmp) ****
             **** THE GBW FILE WAS UPDATED (Ne_ano-rcc-dzp_137.035989_.gbw) ****
             **** DENSITY FILE WAS UPDATED (Ne_ano-rcc-dzp_137.035989_.scfp) ****
----------------
ORBITAL ENERGIES
----------------

  NO   OCC          E(Eh)            E(eV) 
   0   2.0000     -41.580521     -1131.4635 
   1   0.0000      -9.054118      -246.3751 
   2   0.0000      -8.514306      -231.6860 
   3   0.0000      -8.514306      -231.6860 
   4   0.0000      -8.514306      -231.6860 
   5   0.0000      -3.795345      -103.2766 
   6   0.0000      -3.594953       -97.8236 
   7   0.0000      -3.594953       -97.8236 
   8   0.0000      -3.594953       -97.8236 
   9   0.0000      -3.302330       -89.8610 
  10   0.0000      -3.302330       -89.8610 
  11   0.0000      -3.302330       -89.8610 
  12   0.0000      -3.302330       -89.8610 
  13   0.0000      -3.302330       -89.8610 

                    ********************************
                    * MULLIKEN POPULATION ANALYSIS *
                    ********************************

-----------------------
MULLIKEN ATOMIC CHARGES
-----------------------
   0 Ne:    8.000000
Sum of atomic charges:    8.0000000

--------------------------------
MULLIKEN REDUCED ORBITAL CHARGES
--------------------------------
  0 Nes       :     2.000000  s :     2.000000
      pz      :     0.000000  p :     0.000000
      px      :     0.000000
      py      :     0.000000
      dz2     :     0.000000  d :     0.000000
      dxz     :     0.000000
      dyz     :     0.000000
      dx2y2   :     0.000000
      dxy     :     0.000000


                     *******************************
                     * LOEWDIN POPULATION ANALYSIS *
                     *******************************

----------------------
LOEWDIN ATOMIC CHARGES
----------------------
   0 Ne:    8.000000

-------------------------------
LOEWDIN REDUCED ORBITAL CHARGES
-------------------------------
  0 Nes       :     2.000000  s :     2.000000
      pz      :     0.000000  p :     0.000000
      px      :     0.000000
      py      :     0.000000
      dz2     :     0.000000  d :     0.000000
      dxz     :     0.000000
      dyz     :     0.000000
      dx2y2   :     0.000000
      dxy     :     0.000000


                      *****************************
                      * MAYER POPULATION ANALYSIS *
                      *****************************

  NA   - Mulliken gross atomic population
  ZA   - Total nuclear charge
  QA   - Mulliken gross atomic charge
  VA   - Mayer's total valence
  BVA  - Mayer's bonded valence
  FA   - Mayer's free valence

  ATOM       NA         ZA         QA         VA         BVA        FA
  0 Ne     2.0000    10.0000     8.0000    -0.0000     0.0000    -0.0000

  Mayer bond orders larger than 0.100000


--------------------------
ATOM BASIS FOR ELEMENT Ne
--------------------------
 NewGTO Ne
 S 42
    1     166165.079999999987         0.000153216675
    2      23107.524000000001         0.000635236217
    3       5060.153900000000         0.002574924129
    4       1384.612300000000         0.010128630227
    5        436.512580000000         0.035833432481
    6        153.471480000000         0.105523980325
    7         59.389087000000         0.238257600251
    8         24.861967000000         0.369248597988
    9         11.015704000000         0.305192977877
   10          4.965175000000         0.083723313359
   11          1.936503000000         0.003641460987
   12          0.765728000000         0.000957459225
   13          0.295538000000         0.000034219258
   14          0.103438000000         0.000025849439
   15     166165.079999999987         0.000000213783
   16      23107.524000000001         0.000000886249
   17       5060.153900000000         0.000003606410
   18       1384.612300000000         0.000014214437
   19        436.512580000000         0.000051258845
   20        153.471480000000         0.000155923972
   21         59.389087000000         0.000388191733
   22         24.861967000000         0.000725344440
   23         11.015704000000         0.000931753993
   24          4.965175000000         0.000043860723
   25          1.936503000000        -0.002298162988
   26          0.765728000000        -0.003256905518
   27          0.295538000000        -0.001086923104
   28          0.103438000000         0.000001109642
   29     166165.079999999987         0.000000137578
   30      23107.524000000001         0.000000565850
   31       5060.153900000000         0.000002343767
   32       1384.612300000000         0.000009005271
   33        436.512580000000         0.000033810017
   34        153.471480000000         0.000099150331
   35         59.389087000000         0.000270542016
   36         24.861967000000         0.000477004173
   37         11.015704000000         0.000875372606
   38          4.965175000000        -0.000741827136
   39          1.936503000000        -0.003813053341
   40          0.765728000000         0.001393161789
   41          0.295538000000         0.002449365976
   42          0.103438000000         0.000030968542
 S 40
    1     166165.079999999987        -0.000000998140
    2      23107.524000000001        -0.000004138286
    3       5060.153900000000        -0.000016774506
    4       1384.612300000000        -0.000065983600
    5        436.512580000000        -0.000233439156
    6        153.471480000000        -0.000687442626
    7         59.389087000000        -0.001552144165
    8         24.861967000000        -0.002405493282
    9         11.015704000000        -0.001988198905
   10          4.965175000000        -0.000545420806
   11          1.936503000000        -0.000023722527
   12          0.765728000000        -0.000006237429
   13     166165.079999999987         0.000034576111
   14      23107.524000000001         0.000143337316
   15       5060.153900000000         0.000583282312
   16       1384.612300000000         0.002298970175
   17        436.512580000000         0.008290342966
   18        153.471480000000         0.025218344418
   19         59.389087000000         0.062784142253
   20         24.861967000000         0.117313493895
   21         11.015704000000         0.150697117741
   22          4.965175000000         0.007093808587
   23          1.936503000000        -0.371693108772
   24          0.765728000000        -0.526755214106
   25          0.295538000000        -0.175793374745
   26          0.103438000000         0.000179467835
   27     166165.079999999987         0.000014564554
   28      23107.524000000001         0.000059903064
   29       5060.153900000000         0.000248120201
   30       1384.612300000000         0.000953332786
   31        436.512580000000         0.003579259090
   32        153.471480000000         0.010496437286
   33         59.389087000000         0.028640623423
   34         24.861967000000         0.050497505340
   35         11.015704000000         0.092670327239
   36          4.965175000000        -0.078532687677
   37          1.936503000000        -0.403664563451
   38          0.765728000000         0.147485491291
   39          0.295538000000         0.259299348565
   40          0.103438000000         0.003278449567
 S 40
    1     166165.079999999987         0.000000151059
    2      23107.524000000001         0.000000626290
    3       5060.153900000000         0.000002538662
    4       1384.612300000000         0.000009985989
    5        436.512580000000         0.000035328792
    6        153.471480000000         0.000104037891
    7         59.389087000000         0.000234902230
    8         24.861967000000         0.000364048488
    9         11.015704000000         0.000300894960
   10          4.965175000000         0.000082544242
   11          1.936503000000         0.000003590178
   12          0.765728000000         0.000000943975
   13     166165.079999999987         0.000011629155
   14      23107.524000000001         0.000048209350
   15       5060.153900000000         0.000196178233
   16       1384.612300000000         0.000773224040
   17        436.512580000000         0.002788332163
   18        153.471480000000         0.008481810841
   19         59.389087000000         0.021116501923
   20         24.861967000000         0.039456629182
   21         11.015704000000         0.050684708947
   22          4.965175000000         0.002385895822
   23          1.936503000000        -0.125013386573
   24          0.765728000000        -0.177166193444
   25          0.295538000000        -0.059125457522
   26          0.103438000000         0.000060361307
   27     166165.079999999987        -0.000043306246
   28      23107.524000000001        -0.000178115774
   29       5060.153900000000        -0.000737760618
   30       1384.612300000000        -0.002834639757
   31        436.512580000000        -0.010642569176
   32        153.471480000000        -0.031210107203
   33         59.389087000000        -0.085160031264
   34         24.861967000000        -0.150149285160
   35         11.015704000000        -0.275545956115
   36          4.965175000000         0.233509097865
   37          1.936503000000         1.200256235198
   38          0.765728000000        -0.438533367928
   39          0.295538000000        -0.771000697306
   40          0.103438000000        -0.009748142123
 P 18
    1        234.945000000000         0.001510996585
    2         55.077385000000         0.011652112795
    3         17.389549000000         0.052541793803
    4          6.389537000000         0.154248965521
    5          2.542082000000         0.284032393193
    6          1.033764000000         0.336849356718
    7          0.418788000000         0.240189069195
    8          0.164627000000         0.063230207861
    9          0.057619000000         0.000555050760
   10        234.945000000000         0.000936216957
   11         55.077385000000         0.007565712055
   12         17.389549000000         0.033953673556
   13          6.389537000000         0.118539917585
   14          2.542082000000         0.201185669726
   15          1.033764000000        -0.002715756861
   16          0.418788000000        -0.254366013653
   17          0.164627000000        -0.145373308751
   18          0.057619000000        -0.002841577565
 P 18
    1        234.945000000000        -0.000720856499
    2         55.077385000000        -0.005558914770
    3         17.389549000000        -0.025066299884
    4          6.389537000000        -0.073588100952
    5          2.542082000000        -0.135504341008
    6          1.033764000000        -0.160701917087
    7          0.418788000000        -0.114587850958
    8          0.164627000000        -0.030165459480
    9          0.057619000000        -0.000264800034
   10        234.945000000000         0.001962416431
   11         55.077385000000         0.015858586553
   12         17.389549000000         0.071170732769
   13          6.389537000000         0.248473049106
   14          2.542082000000         0.421707875386
   15          1.033764000000        -0.005692532960
   16          0.418788000000        -0.533179879730
   17          0.164627000000        -0.304718866182
   18          0.057619000000        -0.005956267360
 D 4
    1          6.420000000000         0.152549349869
    2          2.247000000000         0.551595029526
    3          0.786450000000         0.442341979620
    4          0.275257500000         0.045151429961
 end
  // -----------------------------------------------
  // The basis set
  // -----------------------------------------------
  BAS[ATNO] = new BFNGauss[NSH];
  // Basis function   1 L = s
  InitBFNGauss(BAS[ATNO][  0]);
  BAS[ATNO][  0].l  = 0;
  BAS[ATNO][  0].ng = 42;
  BAS[ATNO][  0].a[  0] =    166165.079999999987;     BAS[ATNO][  0].d[  0] =         0.000153216675;
  BAS[ATNO][  0].a[  1] =     23107.524000000001;     BAS[ATNO][  0].d[  1] =         0.000635236217;
  BAS[ATNO][  0].a[  2] =      5060.153900000000;     BAS[ATNO][  0].d[  2] =         0.002574924129;
  BAS[ATNO][  0].a[  3] =      1384.612300000000;     BAS[ATNO][  0].d[  3] =         0.010128630227;
  BAS[ATNO][  0].a[  4] =       436.512580000000;     BAS[ATNO][  0].d[  4] =         0.035833432481;
  BAS[ATNO][  0].a[  5] =       153.471480000000;     BAS[ATNO][  0].d[  5] =         0.105523980325;
  BAS[ATNO][  0].a[  6] =        59.389087000000;     BAS[ATNO][  0].d[  6] =         0.238257600251;
  BAS[ATNO][  0].a[  7] =        24.861967000000;     BAS[ATNO][  0].d[  7] =         0.369248597988;
  BAS[ATNO][  0].a[  8] =        11.015704000000;     BAS[ATNO][  0].d[  8] =         0.305192977877;
  BAS[ATNO][  0].a[  9] =         4.965175000000;     BAS[ATNO][  0].d[  9] =         0.083723313359;
  BAS[ATNO][  0].a[ 10] =         1.936503000000;     BAS[ATNO][  0].d[ 10] =         0.003641460987;
  BAS[ATNO][  0].a[ 11] =         0.765728000000;     BAS[ATNO][  0].d[ 11] =         0.000957459225;
  BAS[ATNO][  0].a[ 12] =         0.295538000000;     BAS[ATNO][  0].d[ 12] =         0.000034219258;
  BAS[ATNO][  0].a[ 13] =         0.103438000000;     BAS[ATNO][  0].d[ 13] =         0.000025849439;
  BAS[ATNO][  0].a[ 14] =    166165.079999999987;     BAS[ATNO][  0].d[ 14] =         0.000000213783;
  BAS[ATNO][  0].a[ 15] =     23107.524000000001;     BAS[ATNO][  0].d[ 15] =         0.000000886249;
  BAS[ATNO][  0].a[ 16] =      5060.153900000000;     BAS[ATNO][  0].d[ 16] =         0.000003606410;
  BAS[ATNO][  0].a[ 17] =      1384.612300000000;     BAS[ATNO][  0].d[ 17] =         0.000014214437;
  BAS[ATNO][  0].a[ 18] =       436.512580000000;     BAS[ATNO][  0].d[ 18] =         0.000051258845;
  BAS[ATNO][  0].a[ 19] =       153.471480000000;     BAS[ATNO][  0].d[ 19] =         0.000155923972;
  BAS[ATNO][  0].a[ 20] =        59.389087000000;     BAS[ATNO][  0].d[ 20] =         0.000388191733;
  BAS[ATNO][  0].a[ 21] =        24.861967000000;     BAS[ATNO][  0].d[ 21] =         0.000725344440;
  BAS[ATNO][  0].a[ 22] =        11.015704000000;     BAS[ATNO][  0].d[ 22] =         0.000931753993;
  BAS[ATNO][  0].a[ 23] =         4.965175000000;     BAS[ATNO][  0].d[ 23] =         0.000043860723;
  BAS[ATNO][  0].a[ 24] =         1.936503000000;     BAS[ATNO][  0].d[ 24] =        -0.002298162988;
  BAS[ATNO][  0].a[ 25] =         0.765728000000;     BAS[ATNO][  0].d[ 25] =        -0.003256905518;
  BAS[ATNO][  0].a[ 26] =         0.295538000000;     BAS[ATNO][  0].d[ 26] =        -0.001086923104;
  BAS[ATNO][  0].a[ 27] =         0.103438000000;     BAS[ATNO][  0].d[ 27] =         0.000001109642;
  BAS[ATNO][  0].a[ 28] =    166165.079999999987;     BAS[ATNO][  0].d[ 28] =         0.000000137578;
  BAS[ATNO][  0].a[ 29] =     23107.524000000001;     BAS[ATNO][  0].d[ 29] =         0.000000565850;
  BAS[ATNO][  0].a[ 30] =      5060.153900000000;     BAS[ATNO][  0].d[ 30] =         0.000002343767;
  BAS[ATNO][  0].a[ 31] =      1384.612300000000;     BAS[ATNO][  0].d[ 31] =         0.000009005271;
  BAS[ATNO][  0].a[ 32] =       436.512580000000;     BAS[ATNO][  0].d[ 32] =         0.000033810017;
  BAS[ATNO][  0].a[ 33] =       153.471480000000;     BAS[ATNO][  0].d[ 33] =         0.000099150331;
  BAS[ATNO][  0].a[ 34] =        59.389087000000;     BAS[ATNO][  0].d[ 34] =         0.000270542016;
  BAS[ATNO][  0].a[ 35] =        24.861967000000;     BAS[ATNO][  0].d[ 35] =         0.000477004173;
  BAS[ATNO][  0].a[ 36] =        11.015704000000;     BAS[ATNO][  0].d[ 36] =         0.000875372606;
  BAS[ATNO][  0].a[ 37] =         4.965175000000;     BAS[ATNO][  0].d[ 37] =        -0.000741827136;
  BAS[ATNO][  0].a[ 38] =         1.936503000000;     BAS[ATNO][  0].d[ 38] =        -0.003813053341;
  BAS[ATNO][  0].a[ 39] =         0.765728000000;     BAS[ATNO][  0].d[ 39] =         0.001393161789;
  BAS[ATNO][  0].a[ 40] =         0.295538000000;     BAS[ATNO][  0].d[ 40] =         0.002449365976;
  BAS[ATNO][  0].a[ 41] =         0.103438000000;     BAS[ATNO][  0].d[ 41] =         0.000030968542;

  // Basis function   2 L = s
  InitBFNGauss(BAS[ATNO][  1]);
  BAS[ATNO][  1].l  = 0;
  BAS[ATNO][  1].ng = 40;
  BAS[ATNO][  1].a[  0] =    166165.079999999987;     BAS[ATNO][  1].d[  0] =         0.000000998140;
  BAS[ATNO][  1].a[  1] =     23107.524000000001;     BAS[ATNO][  1].d[  1] =         0.000004138286;
  BAS[ATNO][  1].a[  2] =      5060.153900000000;     BAS[ATNO][  1].d[  2] =         0.000016774506;
  BAS[ATNO][  1].a[  3] =      1384.612300000000;     BAS[ATNO][  1].d[  3] =         0.000065983600;
  BAS[ATNO][  1].a[  4] =       436.512580000000;     BAS[ATNO][  1].d[  4] =         0.000233439156;
  BAS[ATNO][  1].a[  5] =       153.471480000000;     BAS[ATNO][  1].d[  5] =         0.000687442626;
  BAS[ATNO][  1].a[  6] =        59.389087000000;     BAS[ATNO][  1].d[  6] =         0.001552144165;
  BAS[ATNO][  1].a[  7] =        24.861967000000;     BAS[ATNO][  1].d[  7] =         0.002405493282;
  BAS[ATNO][  1].a[  8] =        11.015704000000;     BAS[ATNO][  1].d[  8] =         0.001988198905;
  BAS[ATNO][  1].a[  9] =         4.965175000000;     BAS[ATNO][  1].d[  9] =         0.000545420806;
  BAS[ATNO][  1].a[ 10] =         1.936503000000;     BAS[ATNO][  1].d[ 10] =         0.000023722527;
  BAS[ATNO][  1].a[ 11] =         0.765728000000;     BAS[ATNO][  1].d[ 11] =         0.000006237429;
  BAS[ATNO][  1].a[ 12] =    166165.079999999987;     BAS[ATNO][  1].d[ 12] =        -0.000034576111;
  BAS[ATNO][  1].a[ 13] =     23107.524000000001;     BAS[ATNO][  1].d[ 13] =        -0.000143337316;
  BAS[ATNO][  1].a[ 14] =      5060.153900000000;     BAS[ATNO][  1].d[ 14] =        -0.000583282312;
  BAS[ATNO][  1].a[ 15] =      1384.612300000000;     BAS[ATNO][  1].d[ 15] =        -0.002298970175;
  BAS[ATNO][  1].a[ 16] =       436.512580000000;     BAS[ATNO][  1].d[ 16] =        -0.008290342966;
  BAS[ATNO][  1].a[ 17] =       153.471480000000;     BAS[ATNO][  1].d[ 17] =        -0.025218344418;
  BAS[ATNO][  1].a[ 18] =        59.389087000000;     BAS[ATNO][  1].d[ 18] =        -0.062784142253;
  BAS[ATNO][  1].a[ 19] =        24.861967000000;     BAS[ATNO][  1].d[ 19] =        -0.117313493895;
  BAS[ATNO][  1].a[ 20] =        11.015704000000;     BAS[ATNO][  1].d[ 20] =        -0.150697117741;
  BAS[ATNO][  1].a[ 21] =         4.965175000000;     BAS[ATNO][  1].d[ 21] =        -0.007093808587;
  BAS[ATNO][  1].a[ 22] =         1.936503000000;     BAS[ATNO][  1].d[ 22] =         0.371693108772;
  BAS[ATNO][  1].a[ 23] =         0.765728000000;     BAS[ATNO][  1].d[ 23] =         0.526755214106;
  BAS[ATNO][  1].a[ 24] =         0.295538000000;     BAS[ATNO][  1].d[ 24] =         0.175793374745;
  BAS[ATNO][  1].a[ 25] =         0.103438000000;     BAS[ATNO][  1].d[ 25] =        -0.000179467835;
  BAS[ATNO][  1].a[ 26] =    166165.079999999987;     BAS[ATNO][  1].d[ 26] =        -0.000014564554;
  BAS[ATNO][  1].a[ 27] =     23107.524000000001;     BAS[ATNO][  1].d[ 27] =        -0.000059903064;
  BAS[ATNO][  1].a[ 28] =      5060.153900000000;     BAS[ATNO][  1].d[ 28] =        -0.000248120201;
  BAS[ATNO][  1].a[ 29] =      1384.612300000000;     BAS[ATNO][  1].d[ 29] =        -0.000953332786;
  BAS[ATNO][  1].a[ 30] =       436.512580000000;     BAS[ATNO][  1].d[ 30] =        -0.003579259090;
  BAS[ATNO][  1].a[ 31] =       153.471480000000;     BAS[ATNO][  1].d[ 31] =        -0.010496437286;
  BAS[ATNO][  1].a[ 32] =        59.389087000000;     BAS[ATNO][  1].d[ 32] =        -0.028640623423;
  BAS[ATNO][  1].a[ 33] =        24.861967000000;     BAS[ATNO][  1].d[ 33] =        -0.050497505340;
  BAS[ATNO][  1].a[ 34] =        11.015704000000;     BAS[ATNO][  1].d[ 34] =        -0.092670327239;
  BAS[ATNO][  1].a[ 35] =         4.965175000000;     BAS[ATNO][  1].d[ 35] =         0.078532687677;
  BAS[ATNO][  1].a[ 36] =         1.936503000000;     BAS[ATNO][  1].d[ 36] =         0.403664563451;
  BAS[ATNO][  1].a[ 37] =         0.765728000000;     BAS[ATNO][  1].d[ 37] =        -0.147485491291;
  BAS[ATNO][  1].a[ 38] =         0.295538000000;     BAS[ATNO][  1].d[ 38] =        -0.259299348565;
  BAS[ATNO][  1].a[ 39] =         0.103438000000;     BAS[ATNO][  1].d[ 39] =        -0.003278449567;

  // Basis function   3 L = s
  InitBFNGauss(BAS[ATNO][  2]);
  BAS[ATNO][  2].l  = 0;
  BAS[ATNO][  2].ng = 40;
  BAS[ATNO][  2].a[  0] =    166165.079999999987;     BAS[ATNO][  2].d[  0] =         0.000000151059;
  BAS[ATNO][  2].a[  1] =     23107.524000000001;     BAS[ATNO][  2].d[  1] =         0.000000626290;
  BAS[ATNO][  2].a[  2] =      5060.153900000000;     BAS[ATNO][  2].d[  2] =         0.000002538662;
  BAS[ATNO][  2].a[  3] =      1384.612300000000;     BAS[ATNO][  2].d[  3] =         0.000009985989;
  BAS[ATNO][  2].a[  4] =       436.512580000000;     BAS[ATNO][  2].d[  4] =         0.000035328792;
  BAS[ATNO][  2].a[  5] =       153.471480000000;     BAS[ATNO][  2].d[  5] =         0.000104037891;
  BAS[ATNO][  2].a[  6] =        59.389087000000;     BAS[ATNO][  2].d[  6] =         0.000234902230;
  BAS[ATNO][  2].a[  7] =        24.861967000000;     BAS[ATNO][  2].d[  7] =         0.000364048488;
  BAS[ATNO][  2].a[  8] =        11.015704000000;     BAS[ATNO][  2].d[  8] =         0.000300894960;
  BAS[ATNO][  2].a[  9] =         4.965175000000;     BAS[ATNO][  2].d[  9] =         0.000082544242;
  BAS[ATNO][  2].a[ 10] =         1.936503000000;     BAS[ATNO][  2].d[ 10] =         0.000003590178;
  BAS[ATNO][  2].a[ 11] =         0.765728000000;     BAS[ATNO][  2].d[ 11] =         0.000000943975;
  BAS[ATNO][  2].a[ 12] =    166165.079999999987;     BAS[ATNO][  2].d[ 12] =         0.000011629155;
  BAS[ATNO][  2].a[ 13] =     23107.524000000001;     BAS[ATNO][  2].d[ 13] =         0.000048209350;
  BAS[ATNO][  2].a[ 14] =      5060.153900000000;     BAS[ATNO][  2].d[ 14] =         0.000196178233;
  BAS[ATNO][  2].a[ 15] =      1384.612300000000;     BAS[ATNO][  2].d[ 15] =         0.000773224040;
  BAS[ATNO][  2].a[ 16] =       436.512580000000;     BAS[ATNO][  2].d[ 16] =         0.002788332163;
  BAS[ATNO][  2].a[ 17] =       153.471480000000;     BAS[ATNO][  2].d[ 17] =         0.008481810841;
  BAS[ATNO][  2].a[ 18] =        59.389087000000;     BAS[ATNO][  2].d[ 18] =         0.021116501923;
  BAS[ATNO][  2].a[ 19] =        24.861967000000;     BAS[ATNO][  2].d[ 19] =         0.039456629182;
  BAS[ATNO][  2].a[ 20] =        11.015704000000;     BAS[ATNO][  2].d[ 20] =         0.050684708947;
  BAS[ATNO][  2].a[ 21] =         4.965175000000;     BAS[ATNO][  2].d[ 21] =         0.002385895822;
  BAS[ATNO][  2].a[ 22] =         1.936503000000;     BAS[ATNO][  2].d[ 22] =        -0.125013386573;
  BAS[ATNO][  2].a[ 23] =         0.765728000000;     BAS[ATNO][  2].d[ 23] =        -0.177166193444;
  BAS[ATNO][  2].a[ 24] =         0.295538000000;     BAS[ATNO][  2].d[ 24] =        -0.059125457522;
  BAS[ATNO][  2].a[ 25] =         0.103438000000;     BAS[ATNO][  2].d[ 25] =         0.000060361307;
  BAS[ATNO][  2].a[ 26] =    166165.079999999987;     BAS[ATNO][  2].d[ 26] =        -0.000043306246;
  BAS[ATNO][  2].a[ 27] =     23107.524000000001;     BAS[ATNO][  2].d[ 27] =        -0.000178115774;
  BAS[ATNO][  2].a[ 28] =      5060.153900000000;     BAS[ATNO][  2].d[ 28] =        -0.000737760618;
  BAS[ATNO][  2].a[ 29] =      1384.612300000000;     BAS[ATNO][  2].d[ 29] =        -0.002834639757;
  BAS[ATNO][  2].a[ 30] =       436.512580000000;     BAS[ATNO][  2].d[ 30] =        -0.010642569176;
  BAS[ATNO][  2].a[ 31] =       153.471480000000;     BAS[ATNO][  2].d[ 31] =        -0.031210107203;
  BAS[ATNO][  2].a[ 32] =        59.389087000000;     BAS[ATNO][  2].d[ 32] =        -0.085160031264;
  BAS[ATNO][  2].a[ 33] =        24.861967000000;     BAS[ATNO][  2].d[ 33] =        -0.150149285160;
  BAS[ATNO][  2].a[ 34] =        11.015704000000;     BAS[ATNO][  2].d[ 34] =        -0.275545956115;
  BAS[ATNO][  2].a[ 35] =         4.965175000000;     BAS[ATNO][  2].d[ 35] =         0.233509097865;
  BAS[ATNO][  2].a[ 36] =         1.936503000000;     BAS[ATNO][  2].d[ 36] =         1.200256235198;
  BAS[ATNO][  2].a[ 37] =         0.765728000000;     BAS[ATNO][  2].d[ 37] =        -0.438533367928;
  BAS[ATNO][  2].a[ 38] =         0.295538000000;     BAS[ATNO][  2].d[ 38] =        -0.771000697306;
  BAS[ATNO][  2].a[ 39] =         0.103438000000;     BAS[ATNO][  2].d[ 39] =        -0.009748142123;

  // Basis function   4 L = p
  InitBFNGauss(BAS[ATNO][  3]);
  BAS[ATNO][  3].l  = 1;
  BAS[ATNO][  3].ng = 18;
  BAS[ATNO][  3].a[  0] =       234.945000000000;     BAS[ATNO][  3].d[  0] =         0.001510996585;
  BAS[ATNO][  3].a[  1] =        55.077385000000;     BAS[ATNO][  3].d[  1] =         0.011652112795;
  BAS[ATNO][  3].a[  2] =        17.389549000000;     BAS[ATNO][  3].d[  2] =         0.052541793803;
  BAS[ATNO][  3].a[  3] =         6.389537000000;     BAS[ATNO][  3].d[  3] =         0.154248965521;
  BAS[ATNO][  3].a[  4] =         2.542082000000;     BAS[ATNO][  3].d[  4] =         0.284032393193;
  BAS[ATNO][  3].a[  5] =         1.033764000000;     BAS[ATNO][  3].d[  5] =         0.336849356718;
  BAS[ATNO][  3].a[  6] =         0.418788000000;     BAS[ATNO][  3].d[  6] =         0.240189069195;
  BAS[ATNO][  3].a[  7] =         0.164627000000;     BAS[ATNO][  3].d[  7] =         0.063230207861;
  BAS[ATNO][  3].a[  8] =         0.057619000000;     BAS[ATNO][  3].d[  8] =         0.000555050760;
  BAS[ATNO][  3].a[  9] =       234.945000000000;     BAS[ATNO][  3].d[  9] =         0.000936216957;
  BAS[ATNO][  3].a[ 10] =        55.077385000000;     BAS[ATNO][  3].d[ 10] =         0.007565712055;
  BAS[ATNO][  3].a[ 11] =        17.389549000000;     BAS[ATNO][  3].d[ 11] =         0.033953673556;
  BAS[ATNO][  3].a[ 12] =         6.389537000000;     BAS[ATNO][  3].d[ 12] =         0.118539917585;
  BAS[ATNO][  3].a[ 13] =         2.542082000000;     BAS[ATNO][  3].d[ 13] =         0.201185669726;
  BAS[ATNO][  3].a[ 14] =         1.033764000000;     BAS[ATNO][  3].d[ 14] =        -0.002715756861;
  BAS[ATNO][  3].a[ 15] =         0.418788000000;     BAS[ATNO][  3].d[ 15] =        -0.254366013653;
  BAS[ATNO][  3].a[ 16] =         0.164627000000;     BAS[ATNO][  3].d[ 16] =        -0.145373308751;
  BAS[ATNO][  3].a[ 17] =         0.057619000000;     BAS[ATNO][  3].d[ 17] =        -0.002841577565;

  // Basis function   5 L = p
  InitBFNGauss(BAS[ATNO][  4]);
  BAS[ATNO][  4].l  = 1;
  BAS[ATNO][  4].ng = 18;
  BAS[ATNO][  4].a[  0] =       234.945000000000;     BAS[ATNO][  4].d[  0] =         0.000720856499;
  BAS[ATNO][  4].a[  1] =        55.077385000000;     BAS[ATNO][  4].d[  1] =         0.005558914770;
  BAS[ATNO][  4].a[  2] =        17.389549000000;     BAS[ATNO][  4].d[  2] =         0.025066299884;
  BAS[ATNO][  4].a[  3] =         6.389537000000;     BAS[ATNO][  4].d[  3] =         0.073588100952;
  BAS[ATNO][  4].a[  4] =         2.542082000000;     BAS[ATNO][  4].d[  4] =         0.135504341008;
  BAS[ATNO][  4].a[  5] =         1.033764000000;     BAS[ATNO][  4].d[  5] =         0.160701917087;
  BAS[ATNO][  4].a[  6] =         0.418788000000;     BAS[ATNO][  4].d[  6] =         0.114587850958;
  BAS[ATNO][  4].a[  7] =         0.164627000000;     BAS[ATNO][  4].d[  7] =         0.030165459480;
  BAS[ATNO][  4].a[  8] =         0.057619000000;     BAS[ATNO][  4].d[  8] =         0.000264800034;
  BAS[ATNO][  4].a[  9] =       234.945000000000;     BAS[ATNO][  4].d[  9] =        -0.001962416431;
  BAS[ATNO][  4].a[ 10] =        55.077385000000;     BAS[ATNO][  4].d[ 10] =        -0.015858586553;
  BAS[ATNO][  4].a[ 11] =        17.389549000000;     BAS[ATNO][  4].d[ 11] =        -0.071170732769;
  BAS[ATNO][  4].a[ 12] =         6.389537000000;     BAS[ATNO][  4].d[ 12] =        -0.248473049106;
  BAS[ATNO][  4].a[ 13] =         2.542082000000;     BAS[ATNO][  4].d[ 13] =        -0.421707875386;
  BAS[ATNO][  4].a[ 14] =         1.033764000000;     BAS[ATNO][  4].d[ 14] =         0.005692532960;
  BAS[ATNO][  4].a[ 15] =         0.418788000000;     BAS[ATNO][  4].d[ 15] =         0.533179879730;
  BAS[ATNO][  4].a[ 16] =         0.164627000000;     BAS[ATNO][  4].d[ 16] =         0.304718866182;
  BAS[ATNO][  4].a[ 17] =         0.057619000000;     BAS[ATNO][  4].d[ 17] =         0.005956267360;

  // Basis function   6 L = d
  InitBFNGauss(BAS[ATNO][  5]);
  BAS[ATNO][  5].l  = 2;
  BAS[ATNO][  5].ng = 4;
  BAS[ATNO][  5].a[  0] =         6.420000000000;     BAS[ATNO][  5].d[  0] =         0.152549349869;
  BAS[ATNO][  5].a[  1] =         2.247000000000;     BAS[ATNO][  5].d[  1] =         0.551595029526;
  BAS[ATNO][  5].a[  2] =         0.786450000000;     BAS[ATNO][  5].d[  2] =         0.442341979620;
  BAS[ATNO][  5].a[  3] =         0.275257500000;     BAS[ATNO][  5].d[  3] =         0.045151429961;

-------
TIMINGS
-------

Total SCF time: 0 days 0 hours 0 min 1 sec 

Total time                  ....       1.595 sec
Sum of individual times     ....       1.390 sec  ( 87.2%)

Fock matrix formation       ....       0.976 sec  ( 61.2%)
  XC integration            ....       0.016 sec  (  1.6% of F)
    Basis function eval.    ....       0.004 sec  ( 22.5% of XC)
    Density eval.           ....       0.001 sec  (  3.2% of XC)
    XC-Functional eval.     ....       0.001 sec  (  7.5% of XC)
    XC-Potential eval.      ....       0.000 sec  (  1.2% of XC)
Diagonalization             ....       0.000 sec  (  0.0%)
Density matrix formation    ....       0.000 sec  (  0.0%)
Population analysis         ....       0.000 sec  (  0.0%)
Initial guess               ....       0.092 sec  (  5.8%)
Orbital Transformation      ....       0.000 sec  (  0.0%)
Orbital Orthonormalization  ....       0.000 sec  (  0.0%)
DIIS solution               ....       0.000 sec  (  0.0%)
SOSCF solution              ....       0.000 sec  (  0.0%)
Grid generation             ....       0.321 sec  ( 20.1%)

-------------------------   --------------------
FINAL SINGLE POINT ENERGY       -93.444832853026
-------------------------   --------------------


                            ***************************************
                            *     ORCA property calculations      *
                            ***************************************

                                    ---------------------
                                    Active property flags
                                    ---------------------
   (+) Dipole Moment


------------------------------------------------------------------------------
                       ORCA ELECTRIC PROPERTIES CALCULATION
------------------------------------------------------------------------------

Dipole Moment Calculation                       ... on
Quadrupole Moment Calculation                   ... off
Polarizability Calculation                      ... off
GBWName                                         ... Ne_ano-rcc-dzp_137.035989_.gbw
Electron density file                           ... Ne_ano-rcc-dzp_137.035989_.scfp
The origin for moment calculation is the CENTER OF MASS  = ( 0.000000,  0.000000  0.000000)

-------------
DIPOLE MOMENT
-------------
                                X             Y             Z
Electronic contribution:     -0.00000      -0.00000      -0.00000
Nuclear contribution   :      0.00000       0.00000       0.00000
                        -----------------------------------------
Total Dipole Moment    :     -0.00000      -0.00000      -0.00000
                        -----------------------------------------
Magnitude (a.u.)       :      0.00000
Magnitude (Debye)      :      0.00000



--------------------
Rotational spectrum 
--------------------
 
Rotational constants in cm-1:     0.000000     0.000000     0.000000 
Rotational constants in MHz :     0.000000     0.000000     0.000000 

 Dipole components along the rotational axes: 
x,y,z [a.u.] :    -0.000000    -0.000000    -0.000000 
x,y,z [Debye]:    -0.000000    -0.000000    -0.000000 

 

Timings for individual modules:

Sum of individual times         ...        2.529 sec (=   0.042 min)
GTO integral calculation        ...        0.324 sec (=   0.005 min)  12.8 %
Relativistic integrals          ...        0.355 sec (=   0.006 min)  14.1 %
SCF iterations                  ...        1.850 sec (=   0.031 min)  73.1 %
                             ****ORCA TERMINATED NORMALLY****
TOTAL RUN TIME: 0 days 0 hours 0 minutes 2 seconds 860 msec
