
                                 *****************
                                 * O   R   C   A *
                                 *****************

           --- An Ab Initio, DFT and Semiempirical electronic structure package ---

                  #######################################################
                  #                        -***-                        #
                  #          Department of theory and spectroscopy      #
                  #               Directorship: Frank Neese             #
                  #        Max Planck Institute fuer Kohlenforschung    #
                  #                Kaiser Wilhelm Platz 1               #
                  #                 D-45470 Muelheim/Ruhr               #
                  #                      Germany                        #
                  #                                                     #
                  #                  All rights reserved                #
                  #                        -***-                        #
                  #######################################################


                         Program Version 4.2.1 -  RELEASE  -


 With contributions from (in alphabetic order):
   Daniel Aravena         : Magnetic Suceptibility
   Michael Atanasov       : Ab Initio Ligand Field Theory (pilot matlab implementation)
   Alexander A. Auer      : GIAO ZORA, VPT2
   Ute Becker             : Parallelization
   Giovanni Bistoni       : ED, misc. LED, open-shell LED, HFLD
   Martin Brehm           : Molecular dynamics
   Dmytro Bykov           : SCF Hessian
   Vijay G. Chilkuri      : MRCI spin determinant printing, contributions to CSF-ICE
   Dipayan Datta          : RHF DLPNO-CCSD density
   Achintya Kumar Dutta   : EOM-CC, STEOM-CC
   Dmitry Ganyushin       : Spin-Orbit,Spin-Spin,Magnetic field MRCI
   Miquel Garcia          : C-PCM Hessian, Gaussian charge scheme
   Yang Guo               : DLPNO-NEVPT2, CIM, IAO-localization
   Andreas Hansen         : Spin unrestricted coupled pair/coupled cluster methods
   Benjamin Helmich-Paris : CASSCF linear response (MC-RPA)
   Lee Huntington         : MR-EOM, pCC
   Robert Izsak           : Overlap fitted RIJCOSX, COSX-SCS-MP3, EOM
   Christian Kollmar      : KDIIS, OOCD, Brueckner-CCSD(T), CCSD density
   Simone Kossmann        : Meta GGA functionals, TD-DFT gradient, OOMP2, MP2 Hessian
   Martin Krupicka        : AUTO-CI
   Lucas Lang             : DCDCAS
   Dagmar Lenk            : GEPOL surface, SMD
   Dimitrios Liakos       : Extrapolation schemes; Compound Job, initial MDCI parallelization
   Dimitrios Manganas     : Further ROCIS development; embedding schemes
   Dimitrios Pantazis     : SARC Basis sets
   Taras Petrenko         : DFT Hessian,TD-DFT gradient, ASA, ECA, R-Raman, ABS, FL, XAS/XES, NRVS
   Peter Pinski           : DLPNO-MP2, DLPNO-MP2 Gradient
   Christoph Reimann      : Effective Core Potentials
   Marius Retegan         : Local ZFS, SOC
   Christoph Riplinger    : Optimizer, TS searches, QM/MM, DLPNO-CCSD(T), (RO)-DLPNO pert. Triples
   Tobias Risthaus        : Range-separated hybrids, TD-DFT gradient, RPA, STAB
   Michael Roemelt        : Original ROCIS implementation
   Masaaki Saitow         : Open-shell DLPNO-CCSD energy and density
   Barbara Sandhoefer     : DKH picture change effects
   Avijit Sen             : IP-ROCIS
   Kantharuban Sivalingam : CASSCF convergence, NEVPT2, FIC-MRCI
   Bernardo de Souza      : ESD, SOC TD-DFT
   Georgi Stoychev        : AutoAux, RI-MP2 NMR
   Willem Van den Heuvel  : Paramagnetic NMR
   Boris Wezisla          : Elementary symmetry handling
   Frank Wennmohs         : Technical directorship


 We gratefully acknowledge several colleagues who have allowed us to
 interface, adapt or use parts of their codes:
   Stefan Grimme, W. Hujo, H. Kruse,             : VdW corrections, initial TS optimization,
                  C. Bannwarth                     DFT functionals, gCP, sTDA/sTD-DF
   Ed Valeev, F. Pavosevic, A. Kumar             : LibInt (2-el integral package), F12 methods
   Garnet Chan, S. Sharma, J. Yang, R. Olivares  : DMRG
   Ulf Ekstrom                                   : XCFun DFT Library
   Mihaly Kallay                                 : mrcc  (arbitrary order and MRCC methods)
   Andreas Klamt, Michael Diedenhofen            : otool_cosmo (COSMO solvation model)
   Jiri Pittner, Ondrej Demel                    : Mk-CCSD
   Frank Weinhold                                : gennbo (NPA and NBO analysis)
   Christopher J. Cramer and Donald G. Truhlar   : smd solvation model
   Lars Goerigk                                  : TD-DFT with DH, B97 family of functionals
   V. Asgeirsson, H. Jonsson                     : NEB implementation
   FAccTs GmbH                                   : IRC, NEB, NEB-TS, Multilevel, MM, QM/MM, CI optimization
   S Lehtola, MJT Oliveira, MAL Marques          : LibXC Library


 Your calculation uses the libint2 library for the computation of 2-el integrals
 For citations please refer to: http://libint.valeyev.net

 Your ORCA version has been built with support for libXC version: 4.2.3
 For citations please refer to: https://tddft.org/programs/libxc/

 This ORCA versions uses:
   CBLAS   interface :  Fast vector & matrix operations
   LAPACKE interface :  Fast linear algebra routines
   SCALAPACK package :  Parallel linear algebra routines


----- Orbital basis set information -----
Your calculation utilizes the basis: ANO-RCC-QZP
   H, He:       P.-O. Widmark, P.-A. Malmqvist, and B. O. Roos, Theor. Chim. Acta 77, 291 (1990).
   s block:     B. O. Roos, V. Veryazov and P.-O. Widmark, Theor. Chem. Acc. 111, 345 (2004).
   p block:     B. O. Roos, R. Lindh, P.-A. Malmqvist, V. Veryazov, and P.-O. Widmark, J. Phys. Chem. A 108, 2851 (2004).
   d block:     B. O. Roos, R. Lindh, P.-A. Malmqvist, V. Veryazov, and P.-O. Widmark, J. Phys. Chem. A 109, 6575 (2005).
   actinides:   B. O. Roos, R. Lindh, P.-A. Malmqvist, V. Veryazov, and P.-O. Widmark, Chem. Phys. Letters 409, 295 (2005).
   lanthanides: B. O. Roos, R. Lindh, P.-A. Malmqvist, V. Veryazov, P.-O. Widmark and A. C. Borin, J. Phys. Chem. A 112, 11431 (2008).

================================================================================
                                        WARNINGS
                       Please study these warnings very carefully!
================================================================================


INFO   : the flag for use of LIBINT has been found!

================================================================================
                                       INPUT FILE
================================================================================
NAME = Ne_ano-rcc-qzp_548.143956_.inp
|  1> ! LDA ano-rcc-qzp nori grid5 finalgrid6 verytightscf
|  2> %Pal NProcs 18 End
|  3> 
|  4> % REL
|  5>   Method ZORA
|  6>   ModelPot 1, 0, 0, 0
|  7>   velit 548.143956
|  8> END
|  9> 
| 10> *xyz 8 1
| 11> Ne 0.0 0.0 0.0
| 12> **                         ****END OF INPUT****
================================================================================

                       ****************************
                       * Single Point Calculation *
                       ****************************

---------------------------------
CARTESIAN COORDINATES (ANGSTROEM)
---------------------------------
  Ne     0.000000    0.000000    0.000000

----------------------------
CARTESIAN COORDINATES (A.U.)
----------------------------
  NO LB      ZA    FRAG     MASS         X           Y           Z
   0 Ne   10.0000    0    20.179    0.000000    0.000000    0.000000

--------------------------------
INTERNAL COORDINATES (ANGSTROEM)
--------------------------------
 Ne     0   0   0     0.000000000000     0.00000000     0.00000000

---------------------------
INTERNAL COORDINATES (A.U.)
---------------------------
 Ne     0   0   0     0.000000000000     0.00000000     0.00000000

---------------------
BASIS SET INFORMATION
---------------------
There are 1 groups of distinct atoms

 Group   1 Type Ne  : 70s36p12d6f contracted to 5s4p3d2f pattern {1414141414/9999/444/33}

Atom   0Ne   basis set group =>   1


           ************************************************************
           *        Program running with 18 parallel MPI-processes    *
           *              working on a common directory               *
           ************************************************************


------------------------------------------------------------------------------
                       ORCA GTO INTEGRAL CALCULATION
                     -- ANO INTEGRAL GENERATION BRANCH --
------------------------------------------------------------------------------


Gathering ANO information                         ... done
Calculation Information:
Number of atoms                                   ... 1
Number of basis functions                         ... 46
Highest angular momentum                          ... 3
Number of primitive shells                        ... 30
Total number of shells                            ... 14
Maximum number of shells                          ... 14

Getting memory                                    ... done
Making prescreening integrals                     ... done
Gathering atom contracted prescreening            ... done
Making one-electron integrals                     ... done

Timings:

Total time                                        ...    0.1 sec
Prescreening matrix                               ...    0.1 sec
One-electron matrix                               ...    0.0 sec
Two-index integrals + Cholesky                    ...    0.0 sec


           ************************************************************
           *        Program running with 18 parallel MPI-processes    *
           *              working on a common directory               *
           ************************************************************
------------------------------------------------------------------------------
                          ORCA RELATIVISTIC HAMILTONIAN
------------------------------------------------------------------------------

Relativistic Method            ... ZORA(MP)
Treatment of potential         ... Van Wuellen
Nucleus model                  ... Point Nucleus
Speed of light used            ... 548.14395600000000


            *************************************************
            *         ZERO ORDER REGULAR APPROXIMATION      *
            *                     ZORA(MP)                  *
            *            Programmed by FN according to      *
            *                   C. van Wuellen              *
            *       J. Chem. Phys. (1998) vol 109, 392-399  *
            *************************************************

Terms included in model potential: +V(e,N)
Basis function cutoff value   ... 1.000000e-12
Loading the fitted atomic densities  (DKH4)  ... done
Calculating the cutoffs                      ... done
Number of fit functions                      ... 11
Setting up the integration grid ... done


           ************************************************************
           *        Program running with 18 parallel MPI-processes    *
           *              working on a common directory               *
           ************************************************************
-------------------------------------------------------------------------------
                                 ORCA SCF
-------------------------------------------------------------------------------

------------
SCF SETTINGS
------------
Hamiltonian:
 Density Functional     Method          .... DFT(GTOs)
 Exchange Functional    Exchange        .... Slater
   X-Alpha parameter    XAlpha          ....  0.666667
 Correlation Functional Correlation     .... VWN-5
 Gradients option       PostSCFGGA      .... off
   Density functional embedding theory  .... OFF

Relativistic Settings:
 Scalar relativistic method             .... ZORA
 Speed of light used       Velit        ....       548.143956
Orbital energies will be scaled


General Settings:
 Integral files         IntName         .... Ne_ano-rcc-qzp_548.143956_
 Hartree-Fock type      HFTyp           .... RHF
 Total Charge           Charge          ....    8
 Multiplicity           Mult            ....    1
 Number of Electrons    NEL             ....    2
 Basis Dimension        Dim             ....   46
 Nuclear Repulsion      ENuc            ....      0.0000000000 Eh

Convergence Acceleration:
 DIIS                   CNVDIIS         .... on
   Start iteration      DIISMaxIt       ....    12
   Startup error        DIISStart       ....  0.200000
   # of expansion vecs  DIISMaxEq       ....     5
   Bias factor          DIISBfac        ....   1.050
   Max. coefficient     DIISMaxC        ....  10.000
 Newton-Raphson         CNVNR           .... off
 SOSCF                  CNVSOSCF        .... on
   Start iteration      SOSCFMaxIt      ....   150
   Startup grad/error   SOSCFStart      ....  0.003300
 Level Shifting         CNVShift        .... on
   Level shift para.    LevelShift      ....    0.2500
   Turn off err/grad.   ShiftErr        ....    0.0010
 Zerner damping         CNVZerner       .... off
 Static damping         CNVDamp         .... on
   Fraction old density DampFac         ....    0.7000
   Max. Damping (<1)    DampMax         ....    0.9800
   Min. Damping (>=0)   DampMin         ....    0.0000
   Turn off err/grad.   DampErr         ....    0.1000
 Fernandez-Rico         CNVRico         .... off

SCF Procedure:
 Maximum # iterations   MaxIter         ....   125
 SCF integral mode      SCFMode         .... Direct
   Integral package                     .... LIBINT
 Reset frequency        DirectResetFreq ....    20
 Integral Threshold     Thresh          ....  1.000e-12 Eh
 Primitive CutOff       TCut            ....  1.000e-14 Eh

Convergence Tolerance:
 Convergence Check Mode ConvCheckMode   .... Total+1el-Energy
 Convergence forced     ConvForced      .... 0
 Energy Change          TolE            ....  1.000e-09 Eh
 1-El. energy change                    ....  1.000e-06 Eh
 Orbital Gradient       TolG            ....  2.000e-06
 Orbital Rotation angle TolX            ....  2.000e-06
 DIIS Error             TolErr          ....  1.000e-08


Diagonalization of the overlap matrix:
Smallest eigenvalue                        ... 1.000e+00
Time for diagonalization                   ...    0.001 sec
Threshold for overlap eigenvalues          ... 1.000e-08
Number of eigenvalues below threshold      ... 0
Time for construction of square roots      ...    0.001 sec
Total time needed                          ...    0.002 sec

-------------------
DFT GRID GENERATION
-------------------

General Integration Accuracy     IntAcc      ...  5.010
Radial Grid Type                 RadialGrid  ... Gauss-Chebyshev
Angular Grid (max. acc.)         AngularGrid ... Lebedev-434
Angular grid pruning method      GridPruning ... 3 (G Style)
Weight generation scheme         WeightScheme... Becke
Basis function cutoff            BFCut       ...    1.0000e-12
Integration weight cutoff        WCut        ...    1.0000e-14
Grids for H and He will be reduced by one unit

# of grid points (after initial pruning)     ...  10818 (   0.0 sec)
# of grid points (after weights+screening)   ...  10818 (   0.0 sec)
Grid point division into batches done        ...    0.1 sec
Reduced shell lists constructed in    0.1 sec

Total number of grid points                  ...    10818
Total number of batches                      ...      170
Average number of points per batch           ...       63
Average number of grid points per atom       ...    10818
Average number of shells per batch           ...     5.82 (41.56%)
Average number of basis functions per batch  ...    13.09 (28.46%)
Average number of large shells per batch     ...     3.45 (59.38%)
Average number of large basis fcns per batch ...     8.91 (68.06%)
Maximum spatial batch extension              ...  16.29, 16.29, 16.29 au
Average spatial batch extension              ...   0.85,  0.86,  0.85 au

Time for grid setup =    0.127 sec

------------------------------
INITIAL GUESS: MODEL POTENTIAL
------------------------------
Loading ZORA relativistic densities                ... done
Calculating cut-offs                               ... done
Setting up the integral package                    ... done
Initializing the effective Hamiltonian             ... done
Starting the Coulomb interaction                   ... done (   0.0 sec)
Reading the grid                                   ... done
Mapping shells                                     ... done
Starting the XC term evaluation                    ... done (   0.0 sec)
  promolecular density results
     # of electrons  =     10.000000334
     EX              =    -11.053709298
     EC              =     -0.746638772
     EX+EC           =    -11.800348070
Transforming the Hamiltonian                       ... done (   0.0 sec)
Diagonalizing the Hamiltonian                      ... done (   0.0 sec)
Back transforming the eigenvectors                 ... done (   0.0 sec)
Now organizing SCF variables                       ... done
                      ------------------
                      INITIAL GUESS DONE (   0.2 sec)
                      ------------------
--------------
SCF ITERATIONS
--------------
ITER       Energy         Delta-E        Max-DP      RMS-DP      [F,P]     Damp
               ***  Starting incremental Fock matrix formation  ***
  0    -93.1953852905   0.000000000000 0.00530448  0.00017077  0.5585398 0.7000
                      *** Initiating the SOSCF procedure ***
                      *** Re-Reading the Fockian *** 
                      *** Removing any level shift *** 
ITER      Energy       Delta-E        Grad      Rot      Max-DP    RMS-DP
  1    -93.19919214  -0.0038068512  0.003149  0.003149  0.012367  0.000397
               *** Restarting incremental Fock matrix formation ***
  2    -93.20774999  -0.0085578508  0.010405  0.000223  0.000350  0.000014
  3    -93.20775860  -0.0000086038  0.000400  0.000008  0.000013  0.000001
                  ***Gradient check signals convergence***
              ***Rediagonalizing the Fockian in SOSCF/NRSCF***

               *****************************************************
               *                     SUCCESS                       *
               *           SCF CONVERGED AFTER   4 CYCLES          *
               *****************************************************

Setting up the final grid:

General Integration Accuracy     IntAcc      ...  5.340
Radial Grid Type                 RadialGrid  ... Gauss-Chebyshev
Angular Grid (max. acc.)         AngularGrid ... Lebedev-590
Angular grid pruning method      GridPruning ... 3 (G Style)
Weight generation scheme         WeightScheme... Becke
Basis function cutoff            BFCut       ...    1.0000e-12
Integration weight cutoff        WCut        ...    1.0000e-14
Grids for H and He will be reduced by one unit

# of grid points (after initial pruning)     ...  16840 (   0.0 sec)
# of grid points (after weights+screening)   ...  16840 (   0.0 sec)
Grid point division into batches done        ...    0.2 sec
Reduced shell lists constructed in    0.2 sec

Total number of grid points                  ...    16840
Total number of batches                      ...      264
Average number of points per batch           ...       63
Average number of grid points per atom       ...    16840
Average number of shells per batch           ...     1.69 (12.05%)
Average number of basis functions per batch  ...     5.06 (11.01%)
Average number of large shells per batch     ...     1.69 (100.00%)
Average number of large basis fcns per batch ...     5.06 (100.00%)
Maximum spatial batch extension              ...  16.63, 16.63, 16.63 au
Average spatial batch extension              ...   0.74,  0.74,  0.69 au

Final grid set up in    0.2 sec
Final integration                            ... done (   0.0 sec)
Change in XC energy                          ...    -0.000000700
Integrated number of electrons               ...     2.000000061
Previous integrated no of electrons          ...     1.999999970

----------------
TOTAL SCF ENERGY
----------------

Total Energy       :          -93.20775931 Eh           -2536.31207 eV

Components:
Nuclear Repulsion  :            0.00000000 Eh               0.00000 eV
Electronic Energy  :          -93.20775931 Eh           -2536.31207 eV
One Electron Energy:          -99.85586575 Eh           -2717.21625 eV
Two Electron Energy:            6.64810644 Eh             180.90417 eV

Virial components:
Potential Energy   :         -186.96095614 Eh           -5087.46626 eV
Kinetic Energy     :           93.75319683 Eh            2551.15418 eV
Virial Ratio       :            1.99418220


DFT components:
N(Alpha)           :        1.000000030743 electrons
N(Beta)            :        1.000000030743 electrons
N(Total)           :        2.000000061485 electrons
E(X)               :       -5.154375050841 Eh       
E(C)               :       -0.202729002140 Eh       
E(XC)              :       -5.357104052982 Eh       
DFET-embed. en.    :        0.000000000000 Eh       

---------------
SCF CONVERGENCE
---------------

  Last Energy change         ...   -1.2936e-08  Tolerance :   1.0000e-09
  Last MAX-Density change    ...    5.9472e-10  Tolerance :   1.0000e-08
  Last RMS-Density change    ...    1.7525e-11  Tolerance :   1.0000e-09
  Last Orbital Gradient      ...    1.8408e-08  Tolerance :   2.0000e-06
  Last Orbital Rotation      ...    3.6593e-10  Tolerance :   2.0000e-06

             **** THE GBW FILE WAS UPDATED (Ne_ano-rcc-qzp_548.143956_.gbw) ****
             **** DENSITY FILE WAS UPDATED (Ne_ano-rcc-qzp_548.143956_.scfp) ****
             **** ENERGY FILE WAS UPDATED (Ne_ano-rcc-qzp_548.143956_.en.tmp) ****
             **** THE GBW FILE WAS UPDATED (Ne_ano-rcc-qzp_548.143956_.gbw) ****
             **** DENSITY FILE WAS UPDATED (Ne_ano-rcc-qzp_548.143956_.scfp) ****
----------------
ORBITAL ENERGIES
----------------

  NO   OCC          E(Eh)            E(eV) 
   0   2.0000     -41.469543     -1128.4436 
   1   0.0000      -9.048782      -246.2299 
   2   0.0000      -8.614180      -234.4037 
   3   0.0000      -8.614180      -234.4037 
   4   0.0000      -8.614180      -234.4037 
   5   0.0000      -3.830405      -104.2306 
   6   0.0000      -3.693448      -100.5038 
   7   0.0000      -3.693448      -100.5038 
   8   0.0000      -3.693448      -100.5038 
   9   0.0000      -3.598983       -97.9333 
  10   0.0000      -3.598983       -97.9333 
  11   0.0000      -3.598983       -97.9333 
  12   0.0000      -3.598983       -97.9333 
  13   0.0000      -3.598983       -97.9333 
  14   0.0000      -1.954617       -53.1878 
  15   0.0000      -1.954617       -53.1878 
  16   0.0000      -1.954617       -53.1878 
  17   0.0000      -1.612269       -43.8721 
  18   0.0000      -1.073436       -29.2097 
  19   0.0000      -1.073436       -29.2097 
  20   0.0000      -1.073436       -29.2097 
  21   0.0000      -1.073436       -29.2097 
  22   0.0000      -1.073436       -29.2097 
  23   0.0000      -1.073436       -29.2097 
  24   0.0000      -1.073436       -29.2097 
  25   0.0000      -0.962553       -26.1924 
  26   0.0000      -0.962553       -26.1924 
  27   0.0000      -0.962553       -26.1924 
  28   0.0000      -0.962553       -26.1924 
  29   0.0000      -0.962553       -26.1924 
  30   0.0000       4.046305       110.1055 
  31   0.0000       4.046305       110.1055 
  32   0.0000       4.046305       110.1055 
  33   0.0000       7.252657       197.3548 
  34   0.0000       7.252657       197.3548 
  35   0.0000       7.252657       197.3548 
  36   0.0000       7.252657       197.3548 
  37   0.0000       7.252657       197.3548 
  38   0.0000       7.252657       197.3548 
  39   0.0000       7.252657       197.3548 
  40   0.0000       7.508002       204.3031 
  41   0.0000       8.439971       229.6633 
  42   0.0000       8.439971       229.6633 
  43   0.0000       8.439971       229.6633 
  44   0.0000       8.439971       229.6633 
  45   0.0000       8.439971       229.6633 

                    ********************************
                    * MULLIKEN POPULATION ANALYSIS *
                    ********************************

-----------------------
MULLIKEN ATOMIC CHARGES
-----------------------
   0 Ne:    8.000000
Sum of atomic charges:    8.0000000

--------------------------------
MULLIKEN REDUCED ORBITAL CHARGES
--------------------------------
  0 Nes       :     2.000000  s :     2.000000
      pz      :     0.000000  p :     0.000000
      px      :     0.000000
      py      :     0.000000
      dz2     :     0.000000  d :     0.000000
      dxz     :     0.000000
      dyz     :     0.000000
      dx2y2   :     0.000000
      dxy     :     0.000000
      f0      :     0.000000  f :     0.000000
      f+1     :     0.000000
      f-1     :     0.000000
      f+2     :     0.000000
      f-2     :     0.000000
      f+3     :     0.000000
      f-3     :     0.000000


                     *******************************
                     * LOEWDIN POPULATION ANALYSIS *
                     *******************************

----------------------
LOEWDIN ATOMIC CHARGES
----------------------
   0 Ne:    8.000000

-------------------------------
LOEWDIN REDUCED ORBITAL CHARGES
-------------------------------
  0 Nes       :     2.000000  s :     2.000000
      pz      :     0.000000  p :     0.000000
      px      :     0.000000
      py      :     0.000000
      dz2     :     0.000000  d :     0.000000
      dxz     :     0.000000
      dyz     :     0.000000
      dx2y2   :     0.000000
      dxy     :     0.000000
      f0      :     0.000000  f :     0.000000
      f+1     :     0.000000
      f-1     :     0.000000
      f+2     :     0.000000
      f-2     :     0.000000
      f+3     :     0.000000
      f-3     :     0.000000


                      *****************************
                      * MAYER POPULATION ANALYSIS *
                      *****************************

  NA   - Mulliken gross atomic population
  ZA   - Total nuclear charge
  QA   - Mulliken gross atomic charge
  VA   - Mayer's total valence
  BVA  - Mayer's bonded valence
  FA   - Mayer's free valence

  ATOM       NA         ZA         QA         VA         BVA        FA
  0 Ne     2.0000    10.0000     8.0000     0.0000     0.0000     0.0000

  Mayer bond orders larger than 0.100000


--------------------------
ATOM BASIS FOR ELEMENT Ne
--------------------------
 NewGTO Ne
 S 70
    1     166165.079999999987         0.000153217812
    2      23107.524000000001         0.000635240927
    3       5060.153900000000         0.002574943221
    4       1384.612300000000         0.010128705329
    5        436.512580000000         0.035833698179
    6        153.471480000000         0.105524762765
    7         59.389087000000         0.238259366886
    8         24.861967000000         0.369251335897
    9         11.015704000000         0.305195240825
   10          4.965175000000         0.083723934151
   11          1.936503000000         0.003641487988
   12          0.765728000000         0.000957466324
   13          0.295538000000         0.000034219511
   14          0.103438000000         0.000025849631
   15     166165.079999999987         0.000000177174
   16      23107.524000000001         0.000000734486
   17       5060.153900000000         0.000002988842
   18       1384.612300000000         0.000011780329
   19        436.512580000000         0.000042481181
   20        153.471480000000         0.000129223248
   21         59.389087000000         0.000321717027
   22         24.861967000000         0.000601135049
   23         11.015704000000         0.000772198630
   24          4.965175000000         0.000036349927
   25          1.936503000000        -0.001904621096
   26          0.765728000000        -0.002699186693
   27          0.295538000000        -0.000900796281
   28          0.103438000000         0.000000919625
   29     166165.079999999987         0.000000087245
   30      23107.524000000001         0.000000358833
   31       5060.153900000000         0.000001486298
   32       1384.612300000000         0.000005710686
   33        436.512580000000         0.000021440597
   34        153.471480000000         0.000062876108
   35         59.389087000000         0.000171564015
   36         24.861967000000         0.000302491836
   37         11.015704000000         0.000555116877
   38          4.965175000000        -0.000470429118
   39          1.936503000000        -0.002418044895
   40          0.765728000000         0.000883472496
   41          0.295538000000         0.001553263583
   42          0.103438000000         0.000019638678
   43     166165.079999999987         0.000000004008
   44      23107.524000000001         0.000000015647
   45       5060.153900000000         0.000000072422
   46       1384.612300000000         0.000000232793
   47        436.512580000000         0.000001113889
   48        153.471480000000         0.000002421652
   49         59.389087000000         0.000010324406
   50         24.861967000000         0.000009342306
   51         11.015704000000         0.000051654760
   52          4.965175000000        -0.000126617412
   53          1.936503000000        -0.000006200569
   54          0.765728000000         0.000161000914
   55          0.295538000000        -0.000113101527
   56          0.103438000000        -0.000006367508
   57     166165.079999999987        -0.000000078978
   58      23107.524000000001        -0.000000342899
   59       5060.153900000000        -0.000001276486
   60       1384.612300000000        -0.000005786484
   61        436.512580000000        -0.000018001285
   62        153.471480000000        -0.000072646998
   63         59.389087000000        -0.000149029662
   64         24.861967000000        -0.000509218933
   65         11.015704000000        -0.000511318836
   66          4.965175000000         0.004016425039
   67          1.936503000000        -0.005768776120
   68          0.765728000000         0.004250806354
   69          0.295538000000        -0.001117839804
   70          0.103438000000        -0.000508544183
 S 68
    1     166165.079999999987        -0.000000799038
    2      23107.524000000001        -0.000003312810
    3       5060.153900000000        -0.000013428443
    4       1384.612300000000        -0.000052821647
    5        436.512580000000        -0.000186874324
    6        153.471480000000        -0.000550316315
    7         59.389087000000        -0.001242533158
    8         24.861967000000        -0.001925662082
    9         11.015704000000        -0.001591606707
   10          4.965175000000        -0.000436624027
   11          1.936503000000        -0.000018990521
   12          0.765728000000        -0.000004993229
   13     166165.079999999987         0.000034606458
   14      23107.524000000001         0.000143463121
   15       5060.153900000000         0.000583794252
   16       1384.612300000000         0.002300987954
   17        436.512580000000         0.008297619301
   18        153.471480000000         0.025240478256
   19         59.389087000000         0.062839247141
   20         24.861967000000         0.117416458541
   21         11.015704000000         0.150829382794
   22          4.965175000000         0.007100034738
   23          1.936503000000        -0.372019339354
   24          0.765728000000        -0.527217540837
   25          0.295538000000        -0.175947666481
   26          0.103438000000         0.000179625352
   27     166165.079999999987         0.000014367072
   28      23107.524000000001         0.000059090833
   29       5060.153900000000         0.000244755916
   30       1384.612300000000         0.000940406459
   31        436.512580000000         0.003530727590
   32        153.471480000000         0.010354115136
   33         59.389087000000         0.028252282599
   34         24.861967000000         0.049812805062
   35         11.015704000000         0.091413801823
   36          4.965175000000        -0.077467855806
   37          1.936503000000        -0.398191238835
   38          0.765728000000         0.145485722069
   39          0.295538000000         0.255783485059
   40          0.103438000000         0.003233996770
   41     166165.079999999987         0.000001936730
   42      23107.524000000001         0.000007560800
   43       5060.153900000000         0.000034995200
   44       1384.612300000000         0.000112488216
   45        436.512580000000         0.000538244204
   46        153.471480000000         0.001170170745
   47         59.389087000000         0.004988874150
   48         24.861967000000         0.004514312022
   49         11.015704000000         0.024960186810
   50          4.965175000000        -0.061183020776
   51          1.936503000000        -0.002996187597
   52          0.765728000000         0.077797532641
   53          0.295538000000        -0.054651986267
   54          0.103438000000        -0.003076854850
   55     166165.079999999987        -0.000000279347
   56      23107.524000000001        -0.000001212838
   57       5060.153900000000        -0.000004514941
   58       1384.612300000000        -0.000020466843
   59        436.512580000000        -0.000063670698
   60        153.471480000000        -0.000256953045
   61         59.389087000000        -0.000527119170
   62         24.861967000000        -0.001801111655
   63         11.015704000000        -0.001808539031
   64          4.965175000000         0.014206129200
   65          1.936503000000        -0.020404209736
   66          0.765728000000         0.015035137885
   67          0.295538000000        -0.003953808803
   68          0.103438000000        -0.001798725060
 S 68
    1     166165.079999999987         0.000000045780
    2      23107.524000000001         0.000000189802
    3       5060.153900000000         0.000000769360
    4       1384.612300000000         0.000003026329
    5        436.512580000000         0.000010706654
    6        153.471480000000         0.000031529461
    7         59.389087000000         0.000071188877
    8         24.861967000000         0.000110327615
    9         11.015704000000         0.000091188467
   10          4.965175000000         0.000025015649
   11          1.936503000000         0.000001088030
   12          0.765728000000         0.000000286079
   13     166165.079999999987         0.000011297845
   14      23107.524000000001         0.000046835885
   15       5060.153900000000         0.000190589192
   16       1384.612300000000         0.000751195192
   17        436.512580000000         0.002708893681
   18        153.471480000000         0.008240167399
   19         59.389087000000         0.020514901122
   20         24.861967000000         0.038332525398
   21         11.015704000000         0.049240721604
   22          4.965175000000         0.002317922592
   23          1.936503000000        -0.121451804556
   24          0.765728000000        -0.172118798553
   25          0.295538000000        -0.057440996585
   26          0.103438000000         0.000058641637
   27     166165.079999999987        -0.000043191534
   28      23107.524000000001        -0.000177643974
   29       5060.153900000000        -0.000735806405
   30       1384.612300000000        -0.002827131239
   31        436.512580000000        -0.010614378672
   32        153.471480000000        -0.031127436503
   33         59.389087000000        -0.084934455639
   34         24.861967000000        -0.149751563150
   35         11.015704000000        -0.274816077905
   36          4.965175000000         0.232890568728
   37          1.936503000000         1.197076943854
   38          0.765728000000        -0.437371761515
   39          0.295538000000        -0.768958436853
   40          0.103438000000        -0.009722320817
   41     166165.079999999987         0.000005816685
   42      23107.524000000001         0.000022707756
   43       5060.153900000000         0.000105102955
   44       1384.612300000000         0.000337841875
   45        436.512580000000         0.001616537603
   46        153.471480000000         0.003514436377
   47         59.389087000000         0.014983352537
   48         24.861967000000         0.013558074720
   49         11.015704000000         0.074964263908
   50          4.965175000000        -0.183754238345
   51          1.936503000000        -0.008998610446
   52          0.765728000000         0.233653490366
   53          0.295538000000        -0.164139233125
   54          0.103438000000        -0.009240882720
   55     166165.079999999987         0.000000296016
   56      23107.524000000001         0.000001285209
   57       5060.153900000000         0.000004784350
   58       1384.612300000000         0.000021688111
   59        436.512580000000         0.000067469966
   60        153.471480000000         0.000272285583
   61         59.389087000000         0.000558572678
   62         24.861967000000         0.001908585038
   63         11.015704000000         0.001916455609
   64          4.965175000000        -0.015053817209
   65          1.936503000000         0.021621740823
   66          0.765728000000        -0.015932293326
   67          0.295538000000         0.004189734879
   68          0.103438000000         0.001906056033
 S 68
    1     166165.079999999987         0.000000059303
    2      23107.524000000001         0.000000245870
    3       5060.153900000000         0.000000996633
    4       1384.612300000000         0.000003920322
    5        436.512580000000         0.000013869455
    6        153.471480000000         0.000040843424
    7         59.389087000000         0.000092218434
    8         24.861967000000         0.000142918956
    9         11.015704000000         0.000118126005
   10          4.965175000000         0.000032405400
   11          1.936503000000         0.000001409440
   12          0.765728000000         0.000000370588
   13     166165.079999999987         0.000002184084
   14      23107.524000000001         0.000009054251
   15       5060.153900000000         0.000036844448
   16       1384.612300000000         0.000145220050
   17        436.512580000000         0.000523679704
   18        153.471480000000         0.001592978144
   19         59.389087000000         0.003965913254
   20         24.861967000000         0.007410392555
   21         11.015704000000         0.009519150460
   22          4.965175000000         0.000448097696
   23          1.936503000000        -0.023478900462
   24          0.765728000000        -0.033273775994
   25          0.295538000000        -0.011104416655
   26          0.103438000000         0.000011336523
   27     166165.079999999987        -0.000003513596
   28      23107.524000000001        -0.000014451193
   29       5060.153900000000        -0.000059857252
   30       1384.612300000000        -0.000229984826
   31        436.512580000000        -0.000863471067
   32        153.471480000000        -0.002532191629
   33         59.389087000000        -0.006909348851
   34         24.861967000000        -0.012182167802
   35         11.015704000000        -0.022356064305
   36          4.965175000000         0.018945458251
   37          1.936503000000         0.097381235258
   38          0.765728000000        -0.035579836887
   39          0.295538000000        -0.062554143096
   40          0.103438000000        -0.000790902887
   41     166165.079999999987        -0.000051793996
   42      23107.524000000001        -0.000202198593
   43       5060.153900000000        -0.000935877109
   44       1384.612300000000        -0.003008273916
   45        436.512580000000        -0.014394272207
   46        153.471480000000        -0.031293892440
   47         59.389087000000        -0.133417530531
   48         24.861967000000        -0.120726308978
   49         11.015704000000        -0.667510621793
   50          4.965175000000         1.636218372600
   51          1.936503000000         0.080127086443
   52          0.765728000000        -2.080540493665
   53          0.295538000000         1.461558826194
   54          0.103438000000         0.082284371898
   55     166165.079999999987         0.000027488611
   56      23107.524000000001         0.000119347090
   57       5060.153900000000         0.000444284318
   58       1384.612300000000         0.002014001296
   59        436.512580000000         0.006265395711
   60        153.471480000000         0.025284982732
   61         59.389087000000         0.051870173927
   62         24.861967000000         0.177235016464
   63         11.015704000000         0.177965893433
   64          4.965175000000        -1.397927516180
   65          1.936503000000         2.007838013711
   66          0.765728000000        -1.479504561946
   67          0.295538000000         0.389067144331
   68          0.103438000000         0.177000168028
 S 68
    1     166165.079999999987        -0.000000164000
    2      23107.524000000001        -0.000000679944
    3       5060.153900000000        -0.000002756146
    4       1384.612300000000        -0.000010841479
    5        436.512580000000        -0.000038355374
    6        153.471480000000        -0.000112950714
    7         59.389087000000        -0.000255026070
    8         24.861967000000        -0.000395236158
    9         11.015704000000        -0.000326672331
   10          4.965175000000        -0.000089615725
   11          1.936503000000        -0.000003897745
   12          0.765728000000        -0.000001024845
   13     166165.079999999987         0.000000860551
   14      23107.524000000001         0.000003567463
   15       5060.153900000000         0.000014517073
   16       1384.612300000000         0.000057218119
   17        436.512580000000         0.000206334923
   18        153.471480000000         0.000627648961
   19         59.389087000000         0.001562608591
   20         24.861967000000         0.002919767107
   21         11.015704000000         0.003750638336
   22          4.965175000000         0.000176554873
   23          1.936503000000        -0.009250916301
   24          0.765728000000        -0.013110193011
   25          0.295538000000        -0.004375248714
   26          0.103438000000         0.000004466701
   27     166165.079999999987        -0.000001817065
   28      23107.524000000001        -0.000007473470
   29       5060.153900000000        -0.000030955327
   30       1384.612300000000        -0.000118937227
   31        436.512580000000        -0.000446546218
   32        153.471480000000        -0.001309529224
   33         59.389087000000        -0.003573187010
   34         24.861967000000        -0.006300038495
   35         11.015704000000        -0.011561494475
   36          4.965175000000         0.009797691038
   37          1.936503000000         0.050360948959
   38          0.765728000000        -0.018400201483
   39          0.295538000000        -0.032350031290
   40          0.103438000000        -0.000409017403
   41     166165.079999999987        -0.000022796570
   42      23107.524000000001        -0.000088995534
   43       5060.153900000000        -0.000411916238
   44       1384.612300000000        -0.001324059390
   45        436.512580000000        -0.006335484005
   46        153.471480000000        -0.013773669981
   47         59.389087000000        -0.058722290262
   48         24.861967000000        -0.053136385674
   49         11.015704000000        -0.293797616621
   50          4.965175000000         0.720163908178
   51          1.936503000000         0.035267074793
   52          0.765728000000        -0.915727508096
   53          0.295538000000         0.643289388465
   54          0.103438000000         0.036216580770
   55     166165.079999999987        -0.000062402568
   56      23107.524000000001        -0.000270932750
   57       5060.153900000000        -0.001008580703
   58       1384.612300000000        -0.004572033631
   59        436.512580000000        -0.014223228140
   60        153.471480000000        -0.057400058112
   61         59.389087000000        -0.117751751279
   62         24.861967000000        -0.402345548443
   63         11.015704000000        -0.404004730137
   64          4.965175000000         3.173469466714
   65          1.936503000000        -4.558042213828
   66          0.765728000000         3.358659514786
   67          0.295538000000        -0.883230846195
   68          0.103438000000        -0.401812413262
 P 36
    1        234.945000000000         0.001493159673
    2         55.077385000000         0.011514562709
    3         17.389549000000         0.051921551933
    4          6.389537000000         0.152428097601
    5          2.542082000000         0.280679466507
    6          1.033764000000         0.332872939857
    7          0.418788000000         0.237353701261
    8          0.164627000000         0.062483792112
    9          0.057619000000         0.000548498534
   10        234.945000000000         0.000946777769
   11         55.077385000000         0.007651055584
   12         17.389549000000         0.034336681304
   13          6.389537000000         0.119877083850
   14          2.542082000000         0.203455105169
   15          1.033764000000        -0.002746391423
   16          0.418788000000        -0.257235339524
   17          0.164627000000        -0.147013163815
   18          0.057619000000        -0.002873631423
   19        234.945000000000         0.000375124453
   20         55.077385000000         0.003600504721
   21         17.389549000000         0.014809400177
   22          6.389537000000         0.068959678006
   23          2.542082000000         0.024202243144
   24          1.033764000000        -0.138767027145
   25          0.418788000000         0.020264628739
   26          0.164627000000         0.083926677952
   27          0.057619000000         0.002667318970
   28        234.945000000000         0.000026473975
   29         55.077385000000         0.000197150140
   30         17.389549000000         0.001353395605
   31          6.389537000000         0.003835957773
   32          2.542082000000        -0.007120281066
   33          1.033764000000         0.002138628812
   34          0.418788000000         0.004110025444
   35          0.164627000000        -0.004022939115
   36          0.057619000000        -0.000037282648
 P 36
    1        234.945000000000        -0.000755368283
    2         55.077385000000        -0.005825053822
    3         17.389549000000        -0.026266376080
    4          6.389537000000        -0.077111210811
    5          2.542082000000        -0.141991757771
    6          1.033764000000        -0.168395695037
    7          0.418788000000        -0.120073868157
    8          0.164627000000        -0.031609663452
    9          0.057619000000        -0.000277477622
   10        234.945000000000         0.001870388368
   11         55.077385000000         0.015114893739
   12         17.389549000000         0.067833161524
   13          6.389537000000         0.236820836580
   14          2.542082000000         0.401931767653
   15          1.033764000000        -0.005425580049
   16          0.418788000000        -0.508176261448
   17          0.164627000000        -0.290428990470
   18          0.057619000000        -0.005676946551
   19        234.945000000000         0.000707595175
   20         55.077385000000         0.006791612088
   21         17.389549000000         0.027934889426
   22          6.389537000000         0.130078258200
   23          2.542082000000         0.045652557026
   24          1.033764000000        -0.261755473756
   25          0.418788000000         0.038225056811
   26          0.164627000000         0.158310427196
   27          0.057619000000         0.005031348981
   28        234.945000000000        -0.000364177349
   29         55.077385000000        -0.002712007335
   30         17.389549000000        -0.018617378688
   31          6.389537000000        -0.052767629984
   32          2.542082000000         0.097946948052
   33          1.033764000000        -0.029419086581
   34          0.418788000000        -0.056537718795
   35          0.164627000000         0.055339754830
   36          0.057619000000         0.000512862003
 P 35
    1        234.945000000000         0.000004616153
    2         55.077385000000         0.000035597657
    3         17.389549000000         0.000160517221
    4          6.389537000000         0.000471236582
    5          2.542082000000         0.000867729995
    6          1.033764000000         0.001029087870
    7          0.418788000000         0.000733786937
    8          0.164627000000         0.000193170741
    9        234.945000000000        -0.000575848508
   10         55.077385000000        -0.004653519643
   11         17.389549000000        -0.020884232140
   12          6.389537000000        -0.072911555583
   13          2.542082000000        -0.123745320898
   14          1.033764000000         0.001670408259
   15          0.418788000000         0.156455497192
   16          0.164627000000         0.089416243044
   17          0.057619000000         0.001747798082
   18        234.945000000000         0.002868635898
   19         55.077385000000         0.027533627897
   20         17.389549000000         0.113249820643
   21          6.389537000000         0.527345542200
   22          2.542082000000         0.185078373363
   23          1.033764000000        -1.061173359343
   24          0.418788000000         0.154966814507
   25          0.164627000000         0.641800553149
   26          0.057619000000         0.020397409167
   27        234.945000000000        -0.001506875888
   28         55.077385000000        -0.011221616253
   29         17.389549000000        -0.077034112926
   30          6.389537000000        -0.218339414752
   31          2.542082000000         0.405280269757
   32          1.033764000000        -0.121728911238
   33          0.418788000000        -0.233939110716
   34          0.164627000000         0.228982231830
   35          0.057619000000         0.002122096248
 P 36
    1        234.945000000000        -0.000051150865
    2         55.077385000000        -0.000394452014
    3         17.389549000000        -0.001778665958
    4          6.389537000000        -0.005221698085
    5          2.542082000000        -0.009615178933
    6          1.033764000000        -0.011403160048
    7          0.418788000000        -0.008130977077
    8          0.164627000000        -0.002140494455
    9          0.057619000000        -0.000018789802
   10        234.945000000000        -0.000035187257
   11         55.077385000000        -0.000284353589
   12         17.389549000000        -0.001276132221
   13          6.389537000000        -0.004455264851
   14          2.542082000000        -0.007561465042
   15          1.033764000000         0.000102070394
   16          0.418788000000         0.009560222269
   17          0.164627000000         0.005463784740
   18          0.057619000000         0.000106799304
   19        234.945000000000         0.000759866065
   20         55.077385000000         0.007293316489
   21         17.389549000000         0.029998472682
   22          6.389537000000         0.139687292677
   23          2.542082000000         0.049024965301
   24          1.033764000000        -0.281091659577
   25          0.418788000000         0.041048786879
   26          0.164627000000         0.170005005321
   27          0.057619000000         0.005403020669
   28        234.945000000000         0.006014793247
   29         55.077385000000         0.044791812115
   30         17.389549000000         0.307486678827
   31          6.389537000000         0.871515994011
   32          2.542082000000        -1.617702591866
   33          1.033764000000         0.485888877179
   34          0.418788000000         0.933783196430
   35          0.164627000000        -0.913997491525
   36          0.057619000000        -0.008470485380
 D 12
    1          6.420000000000        -0.145457403846
    2          2.247000000000        -0.525951641474
    3          0.786450000000        -0.421777713396
    4          0.275257500000        -0.043052361664
    5          6.420000000000         0.147391139786
    6          2.247000000000         0.153367094775
    7          0.786450000000        -0.244502369715
    8          0.275257500000        -0.051982831074
    9          6.420000000000        -0.061878487195
   10          2.247000000000         0.061849034132
   11          0.786450000000        -0.008078517728
   12          0.275257500000        -0.033718075152
 D 12
    1          6.420000000000        -0.044382176256
    2          2.247000000000        -0.160479135725
    3          0.786450000000        -0.128693434104
    4          0.275257500000        -0.013136199692
    5          6.420000000000        -0.425447033753
    6          2.247000000000        -0.442696729548
    7          0.786450000000         0.705760251886
    8          0.275257500000         0.150049326700
    9          6.420000000000         0.464592709933
   10          2.247000000000        -0.464371572039
   11          0.786450000000         0.060654689761
   12          0.275257500000         0.253160227713
 D 12
    1          6.420000000000         0.011986252228
    2          2.247000000000         0.043340447910
    3          0.786450000000         0.034756113634
    4          0.275257500000         0.003547680986
    5          6.420000000000         0.213316673000
    6          2.247000000000         0.221965570336
    7          0.786450000000        -0.353864093350
    8          0.275257500000        -0.075233861370
    9          6.420000000000         0.969356635532
   10          2.247000000000        -0.968895238957
   11          0.786450000000         0.126553914297
   12          0.275257500000         0.528210067312
 F 6
    1          4.190000000000        -0.331465230345
    2          1.676000000000        -0.536552262874
    3          0.670400000000        -0.177222974709
    4          4.190000000000         0.434702038053
    5          1.676000000000        -0.186606793115
    6          0.670400000000        -0.252088625587
 F 6
    1          4.190000000000         0.167281232096
    2          1.676000000000         0.270782922011
    3          0.670400000000         0.089439479170
    4          4.190000000000         0.861355494431
    5          1.676000000000        -0.369758529929
    6          0.670400000000        -0.499509787683
 end
  // -----------------------------------------------
  // The basis set
  // -----------------------------------------------
  BAS[ATNO] = new BFNGauss[NSH];
  // Basis function   1 L = s
  InitBFNGauss(BAS[ATNO][  0]);
  BAS[ATNO][  0].l  = 0;
  BAS[ATNO][  0].ng = 70;
  BAS[ATNO][  0].a[  0] =    166165.079999999987;     BAS[ATNO][  0].d[  0] =         0.000153217812;
  BAS[ATNO][  0].a[  1] =     23107.524000000001;     BAS[ATNO][  0].d[  1] =         0.000635240927;
  BAS[ATNO][  0].a[  2] =      5060.153900000000;     BAS[ATNO][  0].d[  2] =         0.002574943221;
  BAS[ATNO][  0].a[  3] =      1384.612300000000;     BAS[ATNO][  0].d[  3] =         0.010128705329;
  BAS[ATNO][  0].a[  4] =       436.512580000000;     BAS[ATNO][  0].d[  4] =         0.035833698179;
  BAS[ATNO][  0].a[  5] =       153.471480000000;     BAS[ATNO][  0].d[  5] =         0.105524762765;
  BAS[ATNO][  0].a[  6] =        59.389087000000;     BAS[ATNO][  0].d[  6] =         0.238259366886;
  BAS[ATNO][  0].a[  7] =        24.861967000000;     BAS[ATNO][  0].d[  7] =         0.369251335897;
  BAS[ATNO][  0].a[  8] =        11.015704000000;     BAS[ATNO][  0].d[  8] =         0.305195240825;
  BAS[ATNO][  0].a[  9] =         4.965175000000;     BAS[ATNO][  0].d[  9] =         0.083723934151;
  BAS[ATNO][  0].a[ 10] =         1.936503000000;     BAS[ATNO][  0].d[ 10] =         0.003641487988;
  BAS[ATNO][  0].a[ 11] =         0.765728000000;     BAS[ATNO][  0].d[ 11] =         0.000957466324;
  BAS[ATNO][  0].a[ 12] =         0.295538000000;     BAS[ATNO][  0].d[ 12] =         0.000034219511;
  BAS[ATNO][  0].a[ 13] =         0.103438000000;     BAS[ATNO][  0].d[ 13] =         0.000025849631;
  BAS[ATNO][  0].a[ 14] =    166165.079999999987;     BAS[ATNO][  0].d[ 14] =         0.000000177174;
  BAS[ATNO][  0].a[ 15] =     23107.524000000001;     BAS[ATNO][  0].d[ 15] =         0.000000734486;
  BAS[ATNO][  0].a[ 16] =      5060.153900000000;     BAS[ATNO][  0].d[ 16] =         0.000002988842;
  BAS[ATNO][  0].a[ 17] =      1384.612300000000;     BAS[ATNO][  0].d[ 17] =         0.000011780329;
  BAS[ATNO][  0].a[ 18] =       436.512580000000;     BAS[ATNO][  0].d[ 18] =         0.000042481181;
  BAS[ATNO][  0].a[ 19] =       153.471480000000;     BAS[ATNO][  0].d[ 19] =         0.000129223248;
  BAS[ATNO][  0].a[ 20] =        59.389087000000;     BAS[ATNO][  0].d[ 20] =         0.000321717027;
  BAS[ATNO][  0].a[ 21] =        24.861967000000;     BAS[ATNO][  0].d[ 21] =         0.000601135049;
  BAS[ATNO][  0].a[ 22] =        11.015704000000;     BAS[ATNO][  0].d[ 22] =         0.000772198630;
  BAS[ATNO][  0].a[ 23] =         4.965175000000;     BAS[ATNO][  0].d[ 23] =         0.000036349927;
  BAS[ATNO][  0].a[ 24] =         1.936503000000;     BAS[ATNO][  0].d[ 24] =        -0.001904621096;
  BAS[ATNO][  0].a[ 25] =         0.765728000000;     BAS[ATNO][  0].d[ 25] =        -0.002699186693;
  BAS[ATNO][  0].a[ 26] =         0.295538000000;     BAS[ATNO][  0].d[ 26] =        -0.000900796281;
  BAS[ATNO][  0].a[ 27] =         0.103438000000;     BAS[ATNO][  0].d[ 27] =         0.000000919625;
  BAS[ATNO][  0].a[ 28] =    166165.079999999987;     BAS[ATNO][  0].d[ 28] =         0.000000087245;
  BAS[ATNO][  0].a[ 29] =     23107.524000000001;     BAS[ATNO][  0].d[ 29] =         0.000000358833;
  BAS[ATNO][  0].a[ 30] =      5060.153900000000;     BAS[ATNO][  0].d[ 30] =         0.000001486298;
  BAS[ATNO][  0].a[ 31] =      1384.612300000000;     BAS[ATNO][  0].d[ 31] =         0.000005710686;
  BAS[ATNO][  0].a[ 32] =       436.512580000000;     BAS[ATNO][  0].d[ 32] =         0.000021440597;
  BAS[ATNO][  0].a[ 33] =       153.471480000000;     BAS[ATNO][  0].d[ 33] =         0.000062876108;
  BAS[ATNO][  0].a[ 34] =        59.389087000000;     BAS[ATNO][  0].d[ 34] =         0.000171564015;
  BAS[ATNO][  0].a[ 35] =        24.861967000000;     BAS[ATNO][  0].d[ 35] =         0.000302491836;
  BAS[ATNO][  0].a[ 36] =        11.015704000000;     BAS[ATNO][  0].d[ 36] =         0.000555116877;
  BAS[ATNO][  0].a[ 37] =         4.965175000000;     BAS[ATNO][  0].d[ 37] =        -0.000470429118;
  BAS[ATNO][  0].a[ 38] =         1.936503000000;     BAS[ATNO][  0].d[ 38] =        -0.002418044895;
  BAS[ATNO][  0].a[ 39] =         0.765728000000;     BAS[ATNO][  0].d[ 39] =         0.000883472496;
  BAS[ATNO][  0].a[ 40] =         0.295538000000;     BAS[ATNO][  0].d[ 40] =         0.001553263583;
  BAS[ATNO][  0].a[ 41] =         0.103438000000;     BAS[ATNO][  0].d[ 41] =         0.000019638678;
  BAS[ATNO][  0].a[ 42] =    166165.079999999987;     BAS[ATNO][  0].d[ 42] =         0.000000004008;
  BAS[ATNO][  0].a[ 43] =     23107.524000000001;     BAS[ATNO][  0].d[ 43] =         0.000000015647;
  BAS[ATNO][  0].a[ 44] =      5060.153900000000;     BAS[ATNO][  0].d[ 44] =         0.000000072422;
  BAS[ATNO][  0].a[ 45] =      1384.612300000000;     BAS[ATNO][  0].d[ 45] =         0.000000232793;
  BAS[ATNO][  0].a[ 46] =       436.512580000000;     BAS[ATNO][  0].d[ 46] =         0.000001113889;
  BAS[ATNO][  0].a[ 47] =       153.471480000000;     BAS[ATNO][  0].d[ 47] =         0.000002421652;
  BAS[ATNO][  0].a[ 48] =        59.389087000000;     BAS[ATNO][  0].d[ 48] =         0.000010324406;
  BAS[ATNO][  0].a[ 49] =        24.861967000000;     BAS[ATNO][  0].d[ 49] =         0.000009342306;
  BAS[ATNO][  0].a[ 50] =        11.015704000000;     BAS[ATNO][  0].d[ 50] =         0.000051654760;
  BAS[ATNO][  0].a[ 51] =         4.965175000000;     BAS[ATNO][  0].d[ 51] =        -0.000126617412;
  BAS[ATNO][  0].a[ 52] =         1.936503000000;     BAS[ATNO][  0].d[ 52] =        -0.000006200569;
  BAS[ATNO][  0].a[ 53] =         0.765728000000;     BAS[ATNO][  0].d[ 53] =         0.000161000914;
  BAS[ATNO][  0].a[ 54] =         0.295538000000;     BAS[ATNO][  0].d[ 54] =        -0.000113101527;
  BAS[ATNO][  0].a[ 55] =         0.103438000000;     BAS[ATNO][  0].d[ 55] =        -0.000006367508;
  BAS[ATNO][  0].a[ 56] =    166165.079999999987;     BAS[ATNO][  0].d[ 56] =        -0.000000078978;
  BAS[ATNO][  0].a[ 57] =     23107.524000000001;     BAS[ATNO][  0].d[ 57] =        -0.000000342899;
  BAS[ATNO][  0].a[ 58] =      5060.153900000000;     BAS[ATNO][  0].d[ 58] =        -0.000001276486;
  BAS[ATNO][  0].a[ 59] =      1384.612300000000;     BAS[ATNO][  0].d[ 59] =        -0.000005786484;
  BAS[ATNO][  0].a[ 60] =       436.512580000000;     BAS[ATNO][  0].d[ 60] =        -0.000018001285;
  BAS[ATNO][  0].a[ 61] =       153.471480000000;     BAS[ATNO][  0].d[ 61] =        -0.000072646998;
  BAS[ATNO][  0].a[ 62] =        59.389087000000;     BAS[ATNO][  0].d[ 62] =        -0.000149029662;
  BAS[ATNO][  0].a[ 63] =        24.861967000000;     BAS[ATNO][  0].d[ 63] =        -0.000509218933;
  BAS[ATNO][  0].a[ 64] =        11.015704000000;     BAS[ATNO][  0].d[ 64] =        -0.000511318836;
  BAS[ATNO][  0].a[ 65] =         4.965175000000;     BAS[ATNO][  0].d[ 65] =         0.004016425039;
  BAS[ATNO][  0].a[ 66] =         1.936503000000;     BAS[ATNO][  0].d[ 66] =        -0.005768776120;
  BAS[ATNO][  0].a[ 67] =         0.765728000000;     BAS[ATNO][  0].d[ 67] =         0.004250806354;
  BAS[ATNO][  0].a[ 68] =         0.295538000000;     BAS[ATNO][  0].d[ 68] =        -0.001117839804;
  BAS[ATNO][  0].a[ 69] =         0.103438000000;     BAS[ATNO][  0].d[ 69] =        -0.000508544183;

  // Basis function   2 L = s
  InitBFNGauss(BAS[ATNO][  1]);
  BAS[ATNO][  1].l  = 0;
  BAS[ATNO][  1].ng = 68;
  BAS[ATNO][  1].a[  0] =    166165.079999999987;     BAS[ATNO][  1].d[  0] =         0.000000799038;
  BAS[ATNO][  1].a[  1] =     23107.524000000001;     BAS[ATNO][  1].d[  1] =         0.000003312810;
  BAS[ATNO][  1].a[  2] =      5060.153900000000;     BAS[ATNO][  1].d[  2] =         0.000013428443;
  BAS[ATNO][  1].a[  3] =      1384.612300000000;     BAS[ATNO][  1].d[  3] =         0.000052821647;
  BAS[ATNO][  1].a[  4] =       436.512580000000;     BAS[ATNO][  1].d[  4] =         0.000186874324;
  BAS[ATNO][  1].a[  5] =       153.471480000000;     BAS[ATNO][  1].d[  5] =         0.000550316315;
  BAS[ATNO][  1].a[  6] =        59.389087000000;     BAS[ATNO][  1].d[  6] =         0.001242533158;
  BAS[ATNO][  1].a[  7] =        24.861967000000;     BAS[ATNO][  1].d[  7] =         0.001925662082;
  BAS[ATNO][  1].a[  8] =        11.015704000000;     BAS[ATNO][  1].d[  8] =         0.001591606707;
  BAS[ATNO][  1].a[  9] =         4.965175000000;     BAS[ATNO][  1].d[  9] =         0.000436624027;
  BAS[ATNO][  1].a[ 10] =         1.936503000000;     BAS[ATNO][  1].d[ 10] =         0.000018990521;
  BAS[ATNO][  1].a[ 11] =         0.765728000000;     BAS[ATNO][  1].d[ 11] =         0.000004993229;
  BAS[ATNO][  1].a[ 12] =    166165.079999999987;     BAS[ATNO][  1].d[ 12] =        -0.000034606458;
  BAS[ATNO][  1].a[ 13] =     23107.524000000001;     BAS[ATNO][  1].d[ 13] =        -0.000143463121;
  BAS[ATNO][  1].a[ 14] =      5060.153900000000;     BAS[ATNO][  1].d[ 14] =        -0.000583794252;
  BAS[ATNO][  1].a[ 15] =      1384.612300000000;     BAS[ATNO][  1].d[ 15] =        -0.002300987954;
  BAS[ATNO][  1].a[ 16] =       436.512580000000;     BAS[ATNO][  1].d[ 16] =        -0.008297619301;
  BAS[ATNO][  1].a[ 17] =       153.471480000000;     BAS[ATNO][  1].d[ 17] =        -0.025240478256;
  BAS[ATNO][  1].a[ 18] =        59.389087000000;     BAS[ATNO][  1].d[ 18] =        -0.062839247141;
  BAS[ATNO][  1].a[ 19] =        24.861967000000;     BAS[ATNO][  1].d[ 19] =        -0.117416458541;
  BAS[ATNO][  1].a[ 20] =        11.015704000000;     BAS[ATNO][  1].d[ 20] =        -0.150829382794;
  BAS[ATNO][  1].a[ 21] =         4.965175000000;     BAS[ATNO][  1].d[ 21] =        -0.007100034738;
  BAS[ATNO][  1].a[ 22] =         1.936503000000;     BAS[ATNO][  1].d[ 22] =         0.372019339354;
  BAS[ATNO][  1].a[ 23] =         0.765728000000;     BAS[ATNO][  1].d[ 23] =         0.527217540837;
  BAS[ATNO][  1].a[ 24] =         0.295538000000;     BAS[ATNO][  1].d[ 24] =         0.175947666481;
  BAS[ATNO][  1].a[ 25] =         0.103438000000;     BAS[ATNO][  1].d[ 25] =        -0.000179625352;
  BAS[ATNO][  1].a[ 26] =    166165.079999999987;     BAS[ATNO][  1].d[ 26] =        -0.000014367072;
  BAS[ATNO][  1].a[ 27] =     23107.524000000001;     BAS[ATNO][  1].d[ 27] =        -0.000059090833;
  BAS[ATNO][  1].a[ 28] =      5060.153900000000;     BAS[ATNO][  1].d[ 28] =        -0.000244755916;
  BAS[ATNO][  1].a[ 29] =      1384.612300000000;     BAS[ATNO][  1].d[ 29] =        -0.000940406459;
  BAS[ATNO][  1].a[ 30] =       436.512580000000;     BAS[ATNO][  1].d[ 30] =        -0.003530727590;
  BAS[ATNO][  1].a[ 31] =       153.471480000000;     BAS[ATNO][  1].d[ 31] =        -0.010354115136;
  BAS[ATNO][  1].a[ 32] =        59.389087000000;     BAS[ATNO][  1].d[ 32] =        -0.028252282599;
  BAS[ATNO][  1].a[ 33] =        24.861967000000;     BAS[ATNO][  1].d[ 33] =        -0.049812805062;
  BAS[ATNO][  1].a[ 34] =        11.015704000000;     BAS[ATNO][  1].d[ 34] =        -0.091413801823;
  BAS[ATNO][  1].a[ 35] =         4.965175000000;     BAS[ATNO][  1].d[ 35] =         0.077467855806;
  BAS[ATNO][  1].a[ 36] =         1.936503000000;     BAS[ATNO][  1].d[ 36] =         0.398191238835;
  BAS[ATNO][  1].a[ 37] =         0.765728000000;     BAS[ATNO][  1].d[ 37] =        -0.145485722069;
  BAS[ATNO][  1].a[ 38] =         0.295538000000;     BAS[ATNO][  1].d[ 38] =        -0.255783485059;
  BAS[ATNO][  1].a[ 39] =         0.103438000000;     BAS[ATNO][  1].d[ 39] =        -0.003233996770;
  BAS[ATNO][  1].a[ 40] =    166165.079999999987;     BAS[ATNO][  1].d[ 40] =        -0.000001936730;
  BAS[ATNO][  1].a[ 41] =     23107.524000000001;     BAS[ATNO][  1].d[ 41] =        -0.000007560800;
  BAS[ATNO][  1].a[ 42] =      5060.153900000000;     BAS[ATNO][  1].d[ 42] =        -0.000034995200;
  BAS[ATNO][  1].a[ 43] =      1384.612300000000;     BAS[ATNO][  1].d[ 43] =        -0.000112488216;
  BAS[ATNO][  1].a[ 44] =       436.512580000000;     BAS[ATNO][  1].d[ 44] =        -0.000538244204;
  BAS[ATNO][  1].a[ 45] =       153.471480000000;     BAS[ATNO][  1].d[ 45] =        -0.001170170745;
  BAS[ATNO][  1].a[ 46] =        59.389087000000;     BAS[ATNO][  1].d[ 46] =        -0.004988874150;
  BAS[ATNO][  1].a[ 47] =        24.861967000000;     BAS[ATNO][  1].d[ 47] =        -0.004514312022;
  BAS[ATNO][  1].a[ 48] =        11.015704000000;     BAS[ATNO][  1].d[ 48] =        -0.024960186810;
  BAS[ATNO][  1].a[ 49] =         4.965175000000;     BAS[ATNO][  1].d[ 49] =         0.061183020776;
  BAS[ATNO][  1].a[ 50] =         1.936503000000;     BAS[ATNO][  1].d[ 50] =         0.002996187597;
  BAS[ATNO][  1].a[ 51] =         0.765728000000;     BAS[ATNO][  1].d[ 51] =        -0.077797532641;
  BAS[ATNO][  1].a[ 52] =         0.295538000000;     BAS[ATNO][  1].d[ 52] =         0.054651986267;
  BAS[ATNO][  1].a[ 53] =         0.103438000000;     BAS[ATNO][  1].d[ 53] =         0.003076854850;
  BAS[ATNO][  1].a[ 54] =    166165.079999999987;     BAS[ATNO][  1].d[ 54] =         0.000000279347;
  BAS[ATNO][  1].a[ 55] =     23107.524000000001;     BAS[ATNO][  1].d[ 55] =         0.000001212838;
  BAS[ATNO][  1].a[ 56] =      5060.153900000000;     BAS[ATNO][  1].d[ 56] =         0.000004514941;
  BAS[ATNO][  1].a[ 57] =      1384.612300000000;     BAS[ATNO][  1].d[ 57] =         0.000020466843;
  BAS[ATNO][  1].a[ 58] =       436.512580000000;     BAS[ATNO][  1].d[ 58] =         0.000063670698;
  BAS[ATNO][  1].a[ 59] =       153.471480000000;     BAS[ATNO][  1].d[ 59] =         0.000256953045;
  BAS[ATNO][  1].a[ 60] =        59.389087000000;     BAS[ATNO][  1].d[ 60] =         0.000527119170;
  BAS[ATNO][  1].a[ 61] =        24.861967000000;     BAS[ATNO][  1].d[ 61] =         0.001801111655;
  BAS[ATNO][  1].a[ 62] =        11.015704000000;     BAS[ATNO][  1].d[ 62] =         0.001808539031;
  BAS[ATNO][  1].a[ 63] =         4.965175000000;     BAS[ATNO][  1].d[ 63] =        -0.014206129200;
  BAS[ATNO][  1].a[ 64] =         1.936503000000;     BAS[ATNO][  1].d[ 64] =         0.020404209736;
  BAS[ATNO][  1].a[ 65] =         0.765728000000;     BAS[ATNO][  1].d[ 65] =        -0.015035137885;
  BAS[ATNO][  1].a[ 66] =         0.295538000000;     BAS[ATNO][  1].d[ 66] =         0.003953808803;
  BAS[ATNO][  1].a[ 67] =         0.103438000000;     BAS[ATNO][  1].d[ 67] =         0.001798725060;

  // Basis function   3 L = s
  InitBFNGauss(BAS[ATNO][  2]);
  BAS[ATNO][  2].l  = 0;
  BAS[ATNO][  2].ng = 68;
  BAS[ATNO][  2].a[  0] =    166165.079999999987;     BAS[ATNO][  2].d[  0] =         0.000000045780;
  BAS[ATNO][  2].a[  1] =     23107.524000000001;     BAS[ATNO][  2].d[  1] =         0.000000189802;
  BAS[ATNO][  2].a[  2] =      5060.153900000000;     BAS[ATNO][  2].d[  2] =         0.000000769360;
  BAS[ATNO][  2].a[  3] =      1384.612300000000;     BAS[ATNO][  2].d[  3] =         0.000003026329;
  BAS[ATNO][  2].a[  4] =       436.512580000000;     BAS[ATNO][  2].d[  4] =         0.000010706654;
  BAS[ATNO][  2].a[  5] =       153.471480000000;     BAS[ATNO][  2].d[  5] =         0.000031529461;
  BAS[ATNO][  2].a[  6] =        59.389087000000;     BAS[ATNO][  2].d[  6] =         0.000071188877;
  BAS[ATNO][  2].a[  7] =        24.861967000000;     BAS[ATNO][  2].d[  7] =         0.000110327615;
  BAS[ATNO][  2].a[  8] =        11.015704000000;     BAS[ATNO][  2].d[  8] =         0.000091188467;
  BAS[ATNO][  2].a[  9] =         4.965175000000;     BAS[ATNO][  2].d[  9] =         0.000025015649;
  BAS[ATNO][  2].a[ 10] =         1.936503000000;     BAS[ATNO][  2].d[ 10] =         0.000001088030;
  BAS[ATNO][  2].a[ 11] =         0.765728000000;     BAS[ATNO][  2].d[ 11] =         0.000000286079;
  BAS[ATNO][  2].a[ 12] =    166165.079999999987;     BAS[ATNO][  2].d[ 12] =         0.000011297845;
  BAS[ATNO][  2].a[ 13] =     23107.524000000001;     BAS[ATNO][  2].d[ 13] =         0.000046835885;
  BAS[ATNO][  2].a[ 14] =      5060.153900000000;     BAS[ATNO][  2].d[ 14] =         0.000190589192;
  BAS[ATNO][  2].a[ 15] =      1384.612300000000;     BAS[ATNO][  2].d[ 15] =         0.000751195192;
  BAS[ATNO][  2].a[ 16] =       436.512580000000;     BAS[ATNO][  2].d[ 16] =         0.002708893681;
  BAS[ATNO][  2].a[ 17] =       153.471480000000;     BAS[ATNO][  2].d[ 17] =         0.008240167399;
  BAS[ATNO][  2].a[ 18] =        59.389087000000;     BAS[ATNO][  2].d[ 18] =         0.020514901122;
  BAS[ATNO][  2].a[ 19] =        24.861967000000;     BAS[ATNO][  2].d[ 19] =         0.038332525398;
  BAS[ATNO][  2].a[ 20] =        11.015704000000;     BAS[ATNO][  2].d[ 20] =         0.049240721604;
  BAS[ATNO][  2].a[ 21] =         4.965175000000;     BAS[ATNO][  2].d[ 21] =         0.002317922592;
  BAS[ATNO][  2].a[ 22] =         1.936503000000;     BAS[ATNO][  2].d[ 22] =        -0.121451804556;
  BAS[ATNO][  2].a[ 23] =         0.765728000000;     BAS[ATNO][  2].d[ 23] =        -0.172118798553;
  BAS[ATNO][  2].a[ 24] =         0.295538000000;     BAS[ATNO][  2].d[ 24] =        -0.057440996585;
  BAS[ATNO][  2].a[ 25] =         0.103438000000;     BAS[ATNO][  2].d[ 25] =         0.000058641637;
  BAS[ATNO][  2].a[ 26] =    166165.079999999987;     BAS[ATNO][  2].d[ 26] =        -0.000043191534;
  BAS[ATNO][  2].a[ 27] =     23107.524000000001;     BAS[ATNO][  2].d[ 27] =        -0.000177643974;
  BAS[ATNO][  2].a[ 28] =      5060.153900000000;     BAS[ATNO][  2].d[ 28] =        -0.000735806405;
  BAS[ATNO][  2].a[ 29] =      1384.612300000000;     BAS[ATNO][  2].d[ 29] =        -0.002827131239;
  BAS[ATNO][  2].a[ 30] =       436.512580000000;     BAS[ATNO][  2].d[ 30] =        -0.010614378672;
  BAS[ATNO][  2].a[ 31] =       153.471480000000;     BAS[ATNO][  2].d[ 31] =        -0.031127436503;
  BAS[ATNO][  2].a[ 32] =        59.389087000000;     BAS[ATNO][  2].d[ 32] =        -0.084934455639;
  BAS[ATNO][  2].a[ 33] =        24.861967000000;     BAS[ATNO][  2].d[ 33] =        -0.149751563150;
  BAS[ATNO][  2].a[ 34] =        11.015704000000;     BAS[ATNO][  2].d[ 34] =        -0.274816077905;
  BAS[ATNO][  2].a[ 35] =         4.965175000000;     BAS[ATNO][  2].d[ 35] =         0.232890568728;
  BAS[ATNO][  2].a[ 36] =         1.936503000000;     BAS[ATNO][  2].d[ 36] =         1.197076943854;
  BAS[ATNO][  2].a[ 37] =         0.765728000000;     BAS[ATNO][  2].d[ 37] =        -0.437371761515;
  BAS[ATNO][  2].a[ 38] =         0.295538000000;     BAS[ATNO][  2].d[ 38] =        -0.768958436853;
  BAS[ATNO][  2].a[ 39] =         0.103438000000;     BAS[ATNO][  2].d[ 39] =        -0.009722320817;
  BAS[ATNO][  2].a[ 40] =    166165.079999999987;     BAS[ATNO][  2].d[ 40] =         0.000005816685;
  BAS[ATNO][  2].a[ 41] =     23107.524000000001;     BAS[ATNO][  2].d[ 41] =         0.000022707756;
  BAS[ATNO][  2].a[ 42] =      5060.153900000000;     BAS[ATNO][  2].d[ 42] =         0.000105102955;
  BAS[ATNO][  2].a[ 43] =      1384.612300000000;     BAS[ATNO][  2].d[ 43] =         0.000337841875;
  BAS[ATNO][  2].a[ 44] =       436.512580000000;     BAS[ATNO][  2].d[ 44] =         0.001616537603;
  BAS[ATNO][  2].a[ 45] =       153.471480000000;     BAS[ATNO][  2].d[ 45] =         0.003514436377;
  BAS[ATNO][  2].a[ 46] =        59.389087000000;     BAS[ATNO][  2].d[ 46] =         0.014983352537;
  BAS[ATNO][  2].a[ 47] =        24.861967000000;     BAS[ATNO][  2].d[ 47] =         0.013558074720;
  BAS[ATNO][  2].a[ 48] =        11.015704000000;     BAS[ATNO][  2].d[ 48] =         0.074964263908;
  BAS[ATNO][  2].a[ 49] =         4.965175000000;     BAS[ATNO][  2].d[ 49] =        -0.183754238345;
  BAS[ATNO][  2].a[ 50] =         1.936503000000;     BAS[ATNO][  2].d[ 50] =        -0.008998610446;
  BAS[ATNO][  2].a[ 51] =         0.765728000000;     BAS[ATNO][  2].d[ 51] =         0.233653490366;
  BAS[ATNO][  2].a[ 52] =         0.295538000000;     BAS[ATNO][  2].d[ 52] =        -0.164139233125;
  BAS[ATNO][  2].a[ 53] =         0.103438000000;     BAS[ATNO][  2].d[ 53] =        -0.009240882720;
  BAS[ATNO][  2].a[ 54] =    166165.079999999987;     BAS[ATNO][  2].d[ 54] =         0.000000296016;
  BAS[ATNO][  2].a[ 55] =     23107.524000000001;     BAS[ATNO][  2].d[ 55] =         0.000001285209;
  BAS[ATNO][  2].a[ 56] =      5060.153900000000;     BAS[ATNO][  2].d[ 56] =         0.000004784350;
  BAS[ATNO][  2].a[ 57] =      1384.612300000000;     BAS[ATNO][  2].d[ 57] =         0.000021688111;
  BAS[ATNO][  2].a[ 58] =       436.512580000000;     BAS[ATNO][  2].d[ 58] =         0.000067469966;
  BAS[ATNO][  2].a[ 59] =       153.471480000000;     BAS[ATNO][  2].d[ 59] =         0.000272285583;
  BAS[ATNO][  2].a[ 60] =        59.389087000000;     BAS[ATNO][  2].d[ 60] =         0.000558572678;
  BAS[ATNO][  2].a[ 61] =        24.861967000000;     BAS[ATNO][  2].d[ 61] =         0.001908585038;
  BAS[ATNO][  2].a[ 62] =        11.015704000000;     BAS[ATNO][  2].d[ 62] =         0.001916455609;
  BAS[ATNO][  2].a[ 63] =         4.965175000000;     BAS[ATNO][  2].d[ 63] =        -0.015053817209;
  BAS[ATNO][  2].a[ 64] =         1.936503000000;     BAS[ATNO][  2].d[ 64] =         0.021621740823;
  BAS[ATNO][  2].a[ 65] =         0.765728000000;     BAS[ATNO][  2].d[ 65] =        -0.015932293326;
  BAS[ATNO][  2].a[ 66] =         0.295538000000;     BAS[ATNO][  2].d[ 66] =         0.004189734879;
  BAS[ATNO][  2].a[ 67] =         0.103438000000;     BAS[ATNO][  2].d[ 67] =         0.001906056033;

  // Basis function   4 L = s
  InitBFNGauss(BAS[ATNO][  3]);
  BAS[ATNO][  3].l  = 0;
  BAS[ATNO][  3].ng = 68;
  BAS[ATNO][  3].a[  0] =    166165.079999999987;     BAS[ATNO][  3].d[  0] =        -0.000000059303;
  BAS[ATNO][  3].a[  1] =     23107.524000000001;     BAS[ATNO][  3].d[  1] =        -0.000000245870;
  BAS[ATNO][  3].a[  2] =      5060.153900000000;     BAS[ATNO][  3].d[  2] =        -0.000000996633;
  BAS[ATNO][  3].a[  3] =      1384.612300000000;     BAS[ATNO][  3].d[  3] =        -0.000003920322;
  BAS[ATNO][  3].a[  4] =       436.512580000000;     BAS[ATNO][  3].d[  4] =        -0.000013869455;
  BAS[ATNO][  3].a[  5] =       153.471480000000;     BAS[ATNO][  3].d[  5] =        -0.000040843424;
  BAS[ATNO][  3].a[  6] =        59.389087000000;     BAS[ATNO][  3].d[  6] =        -0.000092218434;
  BAS[ATNO][  3].a[  7] =        24.861967000000;     BAS[ATNO][  3].d[  7] =        -0.000142918956;
  BAS[ATNO][  3].a[  8] =        11.015704000000;     BAS[ATNO][  3].d[  8] =        -0.000118126005;
  BAS[ATNO][  3].a[  9] =         4.965175000000;     BAS[ATNO][  3].d[  9] =        -0.000032405400;
  BAS[ATNO][  3].a[ 10] =         1.936503000000;     BAS[ATNO][  3].d[ 10] =        -0.000001409440;
  BAS[ATNO][  3].a[ 11] =         0.765728000000;     BAS[ATNO][  3].d[ 11] =        -0.000000370588;
  BAS[ATNO][  3].a[ 12] =    166165.079999999987;     BAS[ATNO][  3].d[ 12] =        -0.000002184084;
  BAS[ATNO][  3].a[ 13] =     23107.524000000001;     BAS[ATNO][  3].d[ 13] =        -0.000009054251;
  BAS[ATNO][  3].a[ 14] =      5060.153900000000;     BAS[ATNO][  3].d[ 14] =        -0.000036844448;
  BAS[ATNO][  3].a[ 15] =      1384.612300000000;     BAS[ATNO][  3].d[ 15] =        -0.000145220050;
  BAS[ATNO][  3].a[ 16] =       436.512580000000;     BAS[ATNO][  3].d[ 16] =        -0.000523679704;
  BAS[ATNO][  3].a[ 17] =       153.471480000000;     BAS[ATNO][  3].d[ 17] =        -0.001592978144;
  BAS[ATNO][  3].a[ 18] =        59.389087000000;     BAS[ATNO][  3].d[ 18] =        -0.003965913254;
  BAS[ATNO][  3].a[ 19] =        24.861967000000;     BAS[ATNO][  3].d[ 19] =        -0.007410392555;
  BAS[ATNO][  3].a[ 20] =        11.015704000000;     BAS[ATNO][  3].d[ 20] =        -0.009519150460;
  BAS[ATNO][  3].a[ 21] =         4.965175000000;     BAS[ATNO][  3].d[ 21] =        -0.000448097696;
  BAS[ATNO][  3].a[ 22] =         1.936503000000;     BAS[ATNO][  3].d[ 22] =         0.023478900462;
  BAS[ATNO][  3].a[ 23] =         0.765728000000;     BAS[ATNO][  3].d[ 23] =         0.033273775994;
  BAS[ATNO][  3].a[ 24] =         0.295538000000;     BAS[ATNO][  3].d[ 24] =         0.011104416655;
  BAS[ATNO][  3].a[ 25] =         0.103438000000;     BAS[ATNO][  3].d[ 25] =        -0.000011336523;
  BAS[ATNO][  3].a[ 26] =    166165.079999999987;     BAS[ATNO][  3].d[ 26] =         0.000003513596;
  BAS[ATNO][  3].a[ 27] =     23107.524000000001;     BAS[ATNO][  3].d[ 27] =         0.000014451193;
  BAS[ATNO][  3].a[ 28] =      5060.153900000000;     BAS[ATNO][  3].d[ 28] =         0.000059857252;
  BAS[ATNO][  3].a[ 29] =      1384.612300000000;     BAS[ATNO][  3].d[ 29] =         0.000229984826;
  BAS[ATNO][  3].a[ 30] =       436.512580000000;     BAS[ATNO][  3].d[ 30] =         0.000863471067;
[...]
  BAS[ATNO][  6].a[  3] =         6.389537000000;     BAS[ATNO][  6].d[  3] =         0.077111210811;
  BAS[ATNO][  6].a[  4] =         2.542082000000;     BAS[ATNO][  6].d[  4] =         0.141991757771;
  BAS[ATNO][  6].a[  5] =         1.033764000000;     BAS[ATNO][  6].d[  5] =         0.168395695037;
  BAS[ATNO][  6].a[  6] =         0.418788000000;     BAS[ATNO][  6].d[  6] =         0.120073868157;
  BAS[ATNO][  6].a[  7] =         0.164627000000;     BAS[ATNO][  6].d[  7] =         0.031609663452;
  BAS[ATNO][  6].a[  8] =         0.057619000000;     BAS[ATNO][  6].d[  8] =         0.000277477622;
  BAS[ATNO][  6].a[  9] =       234.945000000000;     BAS[ATNO][  6].d[  9] =        -0.001870388368;
  BAS[ATNO][  6].a[ 10] =        55.077385000000;     BAS[ATNO][  6].d[ 10] =        -0.015114893739;
  BAS[ATNO][  6].a[ 11] =        17.389549000000;     BAS[ATNO][  6].d[ 11] =        -0.067833161524;
  BAS[ATNO][  6].a[ 12] =         6.389537000000;     BAS[ATNO][  6].d[ 12] =        -0.236820836580;
  BAS[ATNO][  6].a[ 13] =         2.542082000000;     BAS[ATNO][  6].d[ 13] =        -0.401931767653;
  BAS[ATNO][  6].a[ 14] =         1.033764000000;     BAS[ATNO][  6].d[ 14] =         0.005425580049;
  BAS[ATNO][  6].a[ 15] =         0.418788000000;     BAS[ATNO][  6].d[ 15] =         0.508176261448;
  BAS[ATNO][  6].a[ 16] =         0.164627000000;     BAS[ATNO][  6].d[ 16] =         0.290428990470;
  BAS[ATNO][  6].a[ 17] =         0.057619000000;     BAS[ATNO][  6].d[ 17] =         0.005676946551;
  BAS[ATNO][  6].a[ 18] =       234.945000000000;     BAS[ATNO][  6].d[ 18] =        -0.000707595175;
  BAS[ATNO][  6].a[ 19] =        55.077385000000;     BAS[ATNO][  6].d[ 19] =        -0.006791612088;
  BAS[ATNO][  6].a[ 20] =        17.389549000000;     BAS[ATNO][  6].d[ 20] =        -0.027934889426;
  BAS[ATNO][  6].a[ 21] =         6.389537000000;     BAS[ATNO][  6].d[ 21] =        -0.130078258200;
  BAS[ATNO][  6].a[ 22] =         2.542082000000;     BAS[ATNO][  6].d[ 22] =        -0.045652557026;
  BAS[ATNO][  6].a[ 23] =         1.033764000000;     BAS[ATNO][  6].d[ 23] =         0.261755473756;
  BAS[ATNO][  6].a[ 24] =         0.418788000000;     BAS[ATNO][  6].d[ 24] =        -0.038225056811;
  BAS[ATNO][  6].a[ 25] =         0.164627000000;     BAS[ATNO][  6].d[ 25] =        -0.158310427196;
  BAS[ATNO][  6].a[ 26] =         0.057619000000;     BAS[ATNO][  6].d[ 26] =        -0.005031348981;
  BAS[ATNO][  6].a[ 27] =       234.945000000000;     BAS[ATNO][  6].d[ 27] =         0.000364177349;
  BAS[ATNO][  6].a[ 28] =        55.077385000000;     BAS[ATNO][  6].d[ 28] =         0.002712007335;
  BAS[ATNO][  6].a[ 29] =        17.389549000000;     BAS[ATNO][  6].d[ 29] =         0.018617378688;
  BAS[ATNO][  6].a[ 30] =         6.389537000000;     BAS[ATNO][  6].d[ 30] =         0.052767629984;
  BAS[ATNO][  6].a[ 31] =         2.542082000000;     BAS[ATNO][  6].d[ 31] =        -0.097946948052;
  BAS[ATNO][  6].a[ 32] =         1.033764000000;     BAS[ATNO][  6].d[ 32] =         0.029419086581;
  BAS[ATNO][  6].a[ 33] =         0.418788000000;     BAS[ATNO][  6].d[ 33] =         0.056537718795;
  BAS[ATNO][  6].a[ 34] =         0.164627000000;     BAS[ATNO][  6].d[ 34] =        -0.055339754830;
  BAS[ATNO][  6].a[ 35] =         0.057619000000;     BAS[ATNO][  6].d[ 35] =        -0.000512862003;

  // Basis function   8 L = p
  InitBFNGauss(BAS[ATNO][  7]);
  BAS[ATNO][  7].l  = 1;
  BAS[ATNO][  7].ng = 35;
  BAS[ATNO][  7].a[  0] =       234.945000000000;     BAS[ATNO][  7].d[  0] =        -0.000004616153;
  BAS[ATNO][  7].a[  1] =        55.077385000000;     BAS[ATNO][  7].d[  1] =        -0.000035597657;
  BAS[ATNO][  7].a[  2] =        17.389549000000;     BAS[ATNO][  7].d[  2] =        -0.000160517221;
  BAS[ATNO][  7].a[  3] =         6.389537000000;     BAS[ATNO][  7].d[  3] =        -0.000471236582;
  BAS[ATNO][  7].a[  4] =         2.542082000000;     BAS[ATNO][  7].d[  4] =        -0.000867729995;
  BAS[ATNO][  7].a[  5] =         1.033764000000;     BAS[ATNO][  7].d[  5] =        -0.001029087870;
  BAS[ATNO][  7].a[  6] =         0.418788000000;     BAS[ATNO][  7].d[  6] =        -0.000733786937;
  BAS[ATNO][  7].a[  7] =         0.164627000000;     BAS[ATNO][  7].d[  7] =        -0.000193170741;
  BAS[ATNO][  7].a[  8] =       234.945000000000;     BAS[ATNO][  7].d[  8] =         0.000575848508;
  BAS[ATNO][  7].a[  9] =        55.077385000000;     BAS[ATNO][  7].d[  9] =         0.004653519643;
  BAS[ATNO][  7].a[ 10] =        17.389549000000;     BAS[ATNO][  7].d[ 10] =         0.020884232140;
  BAS[ATNO][  7].a[ 11] =         6.389537000000;     BAS[ATNO][  7].d[ 11] =         0.072911555583;
  BAS[ATNO][  7].a[ 12] =         2.542082000000;     BAS[ATNO][  7].d[ 12] =         0.123745320898;
  BAS[ATNO][  7].a[ 13] =         1.033764000000;     BAS[ATNO][  7].d[ 13] =        -0.001670408259;
  BAS[ATNO][  7].a[ 14] =         0.418788000000;     BAS[ATNO][  7].d[ 14] =        -0.156455497192;
  BAS[ATNO][  7].a[ 15] =         0.164627000000;     BAS[ATNO][  7].d[ 15] =        -0.089416243044;
  BAS[ATNO][  7].a[ 16] =         0.057619000000;     BAS[ATNO][  7].d[ 16] =        -0.001747798082;
  BAS[ATNO][  7].a[ 17] =       234.945000000000;     BAS[ATNO][  7].d[ 17] =        -0.002868635898;
  BAS[ATNO][  7].a[ 18] =        55.077385000000;     BAS[ATNO][  7].d[ 18] =        -0.027533627897;
  BAS[ATNO][  7].a[ 19] =        17.389549000000;     BAS[ATNO][  7].d[ 19] =        -0.113249820643;
  BAS[ATNO][  7].a[ 20] =         6.389537000000;     BAS[ATNO][  7].d[ 20] =        -0.527345542200;
  BAS[ATNO][  7].a[ 21] =         2.542082000000;     BAS[ATNO][  7].d[ 21] =        -0.185078373363;
  BAS[ATNO][  7].a[ 22] =         1.033764000000;     BAS[ATNO][  7].d[ 22] =         1.061173359343;
  BAS[ATNO][  7].a[ 23] =         0.418788000000;     BAS[ATNO][  7].d[ 23] =        -0.154966814507;
  BAS[ATNO][  7].a[ 24] =         0.164627000000;     BAS[ATNO][  7].d[ 24] =        -0.641800553149;
  BAS[ATNO][  7].a[ 25] =         0.057619000000;     BAS[ATNO][  7].d[ 25] =        -0.020397409167;
  BAS[ATNO][  7].a[ 26] =       234.945000000000;     BAS[ATNO][  7].d[ 26] =         0.001506875888;
  BAS[ATNO][  7].a[ 27] =        55.077385000000;     BAS[ATNO][  7].d[ 27] =         0.011221616253;
  BAS[ATNO][  7].a[ 28] =        17.389549000000;     BAS[ATNO][  7].d[ 28] =         0.077034112926;
  BAS[ATNO][  7].a[ 29] =         6.389537000000;     BAS[ATNO][  7].d[ 29] =         0.218339414752;
  BAS[ATNO][  7].a[ 30] =         2.542082000000;     BAS[ATNO][  7].d[ 30] =        -0.405280269757;
  BAS[ATNO][  7].a[ 31] =         1.033764000000;     BAS[ATNO][  7].d[ 31] =         0.121728911238;
  BAS[ATNO][  7].a[ 32] =         0.418788000000;     BAS[ATNO][  7].d[ 32] =         0.233939110716;
  BAS[ATNO][  7].a[ 33] =         0.164627000000;     BAS[ATNO][  7].d[ 33] =        -0.228982231830;
  BAS[ATNO][  7].a[ 34] =         0.057619000000;     BAS[ATNO][  7].d[ 34] =        -0.002122096248;

  // Basis function   9 L = p
  InitBFNGauss(BAS[ATNO][  8]);
  BAS[ATNO][  8].l  = 1;
  BAS[ATNO][  8].ng = 36;
  BAS[ATNO][  8].a[  0] =       234.945000000000;     BAS[ATNO][  8].d[  0] =         0.000051150865;
  BAS[ATNO][  8].a[  1] =        55.077385000000;     BAS[ATNO][  8].d[  1] =         0.000394452014;
  BAS[ATNO][  8].a[  2] =        17.389549000000;     BAS[ATNO][  8].d[  2] =         0.001778665958;
  BAS[ATNO][  8].a[  3] =         6.389537000000;     BAS[ATNO][  8].d[  3] =         0.005221698085;
  BAS[ATNO][  8].a[  4] =         2.542082000000;     BAS[ATNO][  8].d[  4] =         0.009615178933;
  BAS[ATNO][  8].a[  5] =         1.033764000000;     BAS[ATNO][  8].d[  5] =         0.011403160048;
  BAS[ATNO][  8].a[  6] =         0.418788000000;     BAS[ATNO][  8].d[  6] =         0.008130977077;
  BAS[ATNO][  8].a[  7] =         0.164627000000;     BAS[ATNO][  8].d[  7] =         0.002140494455;
  BAS[ATNO][  8].a[  8] =         0.057619000000;     BAS[ATNO][  8].d[  8] =         0.000018789802;
  BAS[ATNO][  8].a[  9] =       234.945000000000;     BAS[ATNO][  8].d[  9] =         0.000035187257;
  BAS[ATNO][  8].a[ 10] =        55.077385000000;     BAS[ATNO][  8].d[ 10] =         0.000284353589;
  BAS[ATNO][  8].a[ 11] =        17.389549000000;     BAS[ATNO][  8].d[ 11] =         0.001276132221;
  BAS[ATNO][  8].a[ 12] =         6.389537000000;     BAS[ATNO][  8].d[ 12] =         0.004455264851;
  BAS[ATNO][  8].a[ 13] =         2.542082000000;     BAS[ATNO][  8].d[ 13] =         0.007561465042;
  BAS[ATNO][  8].a[ 14] =         1.033764000000;     BAS[ATNO][  8].d[ 14] =        -0.000102070394;
  BAS[ATNO][  8].a[ 15] =         0.418788000000;     BAS[ATNO][  8].d[ 15] =        -0.009560222269;
  BAS[ATNO][  8].a[ 16] =         0.164627000000;     BAS[ATNO][  8].d[ 16] =        -0.005463784740;
  BAS[ATNO][  8].a[ 17] =         0.057619000000;     BAS[ATNO][  8].d[ 17] =        -0.000106799304;
  BAS[ATNO][  8].a[ 18] =       234.945000000000;     BAS[ATNO][  8].d[ 18] =        -0.000759866065;
  BAS[ATNO][  8].a[ 19] =        55.077385000000;     BAS[ATNO][  8].d[ 19] =        -0.007293316489;
  BAS[ATNO][  8].a[ 20] =        17.389549000000;     BAS[ATNO][  8].d[ 20] =        -0.029998472682;
  BAS[ATNO][  8].a[ 21] =         6.389537000000;     BAS[ATNO][  8].d[ 21] =        -0.139687292677;
  BAS[ATNO][  8].a[ 22] =         2.542082000000;     BAS[ATNO][  8].d[ 22] =        -0.049024965301;
  BAS[ATNO][  8].a[ 23] =         1.033764000000;     BAS[ATNO][  8].d[ 23] =         0.281091659577;
  BAS[ATNO][  8].a[ 24] =         0.418788000000;     BAS[ATNO][  8].d[ 24] =        -0.041048786879;
  BAS[ATNO][  8].a[ 25] =         0.164627000000;     BAS[ATNO][  8].d[ 25] =        -0.170005005321;
  BAS[ATNO][  8].a[ 26] =         0.057619000000;     BAS[ATNO][  8].d[ 26] =        -0.005403020669;
  BAS[ATNO][  8].a[ 27] =       234.945000000000;     BAS[ATNO][  8].d[ 27] =        -0.006014793247;
  BAS[ATNO][  8].a[ 28] =        55.077385000000;     BAS[ATNO][  8].d[ 28] =        -0.044791812115;
  BAS[ATNO][  8].a[ 29] =        17.389549000000;     BAS[ATNO][  8].d[ 29] =        -0.307486678827;
  BAS[ATNO][  8].a[ 30] =         6.389537000000;     BAS[ATNO][  8].d[ 30] =        -0.871515994011;
  BAS[ATNO][  8].a[ 31] =         2.542082000000;     BAS[ATNO][  8].d[ 31] =         1.617702591866;
  BAS[ATNO][  8].a[ 32] =         1.033764000000;     BAS[ATNO][  8].d[ 32] =        -0.485888877179;
  BAS[ATNO][  8].a[ 33] =         0.418788000000;     BAS[ATNO][  8].d[ 33] =        -0.933783196430;
  BAS[ATNO][  8].a[ 34] =         0.164627000000;     BAS[ATNO][  8].d[ 34] =         0.913997491525;
  BAS[ATNO][  8].a[ 35] =         0.057619000000;     BAS[ATNO][  8].d[ 35] =         0.008470485380;

  // Basis function  10 L = d
  InitBFNGauss(BAS[ATNO][  9]);
  BAS[ATNO][  9].l  = 2;
  BAS[ATNO][  9].ng = 12;
  BAS[ATNO][  9].a[  0] =         6.420000000000;     BAS[ATNO][  9].d[  0] =         0.145457403846;
  BAS[ATNO][  9].a[  1] =         2.247000000000;     BAS[ATNO][  9].d[  1] =         0.525951641474;
  BAS[ATNO][  9].a[  2] =         0.786450000000;     BAS[ATNO][  9].d[  2] =         0.421777713396;
  BAS[ATNO][  9].a[  3] =         0.275257500000;     BAS[ATNO][  9].d[  3] =         0.043052361664;
  BAS[ATNO][  9].a[  4] =         6.420000000000;     BAS[ATNO][  9].d[  4] =        -0.147391139786;
  BAS[ATNO][  9].a[  5] =         2.247000000000;     BAS[ATNO][  9].d[  5] =        -0.153367094775;
  BAS[ATNO][  9].a[  6] =         0.786450000000;     BAS[ATNO][  9].d[  6] =         0.244502369715;
  BAS[ATNO][  9].a[  7] =         0.275257500000;     BAS[ATNO][  9].d[  7] =         0.051982831074;
  BAS[ATNO][  9].a[  8] =         6.420000000000;     BAS[ATNO][  9].d[  8] =         0.061878487195;
  BAS[ATNO][  9].a[  9] =         2.247000000000;     BAS[ATNO][  9].d[  9] =        -0.061849034132;
  BAS[ATNO][  9].a[ 10] =         0.786450000000;     BAS[ATNO][  9].d[ 10] =         0.008078517728;
  BAS[ATNO][  9].a[ 11] =         0.275257500000;     BAS[ATNO][  9].d[ 11] =         0.033718075152;

  // Basis function  11 L = d
  InitBFNGauss(BAS[ATNO][ 10]);
  BAS[ATNO][ 10].l  = 2;
  BAS[ATNO][ 10].ng = 12;
  BAS[ATNO][ 10].a[  0] =         6.420000000000;     BAS[ATNO][ 10].d[  0] =        -0.044382176256;
  BAS[ATNO][ 10].a[  1] =         2.247000000000;     BAS[ATNO][ 10].d[  1] =        -0.160479135725;
  BAS[ATNO][ 10].a[  2] =         0.786450000000;     BAS[ATNO][ 10].d[  2] =        -0.128693434104;
  BAS[ATNO][ 10].a[  3] =         0.275257500000;     BAS[ATNO][ 10].d[  3] =        -0.013136199692;
  BAS[ATNO][ 10].a[  4] =         6.420000000000;     BAS[ATNO][ 10].d[  4] =        -0.425447033753;
  BAS[ATNO][ 10].a[  5] =         2.247000000000;     BAS[ATNO][ 10].d[  5] =        -0.442696729548;
  BAS[ATNO][ 10].a[  6] =         0.786450000000;     BAS[ATNO][ 10].d[  6] =         0.705760251886;
  BAS[ATNO][ 10].a[  7] =         0.275257500000;     BAS[ATNO][ 10].d[  7] =         0.150049326700;
  BAS[ATNO][ 10].a[  8] =         6.420000000000;     BAS[ATNO][ 10].d[  8] =         0.464592709933;
  BAS[ATNO][ 10].a[  9] =         2.247000000000;     BAS[ATNO][ 10].d[  9] =        -0.464371572039;
  BAS[ATNO][ 10].a[ 10] =         0.786450000000;     BAS[ATNO][ 10].d[ 10] =         0.060654689761;
  BAS[ATNO][ 10].a[ 11] =         0.275257500000;     BAS[ATNO][ 10].d[ 11] =         0.253160227713;

  // Basis function  12 L = d
  InitBFNGauss(BAS[ATNO][ 11]);
  BAS[ATNO][ 11].l  = 2;
  BAS[ATNO][ 11].ng = 12;
  BAS[ATNO][ 11].a[  0] =         6.420000000000;     BAS[ATNO][ 11].d[  0] =         0.011986252228;
  BAS[ATNO][ 11].a[  1] =         2.247000000000;     BAS[ATNO][ 11].d[  1] =         0.043340447910;
  BAS[ATNO][ 11].a[  2] =         0.786450000000;     BAS[ATNO][ 11].d[  2] =         0.034756113634;
  BAS[ATNO][ 11].a[  3] =         0.275257500000;     BAS[ATNO][ 11].d[  3] =         0.003547680986;
  BAS[ATNO][ 11].a[  4] =         6.420000000000;     BAS[ATNO][ 11].d[  4] =         0.213316673000;
  BAS[ATNO][ 11].a[  5] =         2.247000000000;     BAS[ATNO][ 11].d[  5] =         0.221965570336;
  BAS[ATNO][ 11].a[  6] =         0.786450000000;     BAS[ATNO][ 11].d[  6] =        -0.353864093350;
  BAS[ATNO][ 11].a[  7] =         0.275257500000;     BAS[ATNO][ 11].d[  7] =        -0.075233861370;
  BAS[ATNO][ 11].a[  8] =         6.420000000000;     BAS[ATNO][ 11].d[  8] =         0.969356635532;
  BAS[ATNO][ 11].a[  9] =         2.247000000000;     BAS[ATNO][ 11].d[  9] =        -0.968895238957;
  BAS[ATNO][ 11].a[ 10] =         0.786450000000;     BAS[ATNO][ 11].d[ 10] =         0.126553914297;
  BAS[ATNO][ 11].a[ 11] =         0.275257500000;     BAS[ATNO][ 11].d[ 11] =         0.528210067312;

  // Basis function  13 L = f
  InitBFNGauss(BAS[ATNO][ 12]);
  BAS[ATNO][ 12].l  = 3;
  BAS[ATNO][ 12].ng = 6;
  BAS[ATNO][ 12].a[  0] =         4.190000000000;     BAS[ATNO][ 12].d[  0] =         0.331465230345;
  BAS[ATNO][ 12].a[  1] =         1.676000000000;     BAS[ATNO][ 12].d[  1] =         0.536552262874;
  BAS[ATNO][ 12].a[  2] =         0.670400000000;     BAS[ATNO][ 12].d[  2] =         0.177222974709;
  BAS[ATNO][ 12].a[  3] =         4.190000000000;     BAS[ATNO][ 12].d[  3] =        -0.434702038053;
  BAS[ATNO][ 12].a[  4] =         1.676000000000;     BAS[ATNO][ 12].d[  4] =         0.186606793115;
  BAS[ATNO][ 12].a[  5] =         0.670400000000;     BAS[ATNO][ 12].d[  5] =         0.252088625587;

  // Basis function  14 L = f
  InitBFNGauss(BAS[ATNO][ 13]);
  BAS[ATNO][ 13].l  = 3;
  BAS[ATNO][ 13].ng = 6;
  BAS[ATNO][ 13].a[  0] =         4.190000000000;     BAS[ATNO][ 13].d[  0] =         0.167281232096;
  BAS[ATNO][ 13].a[  1] =         1.676000000000;     BAS[ATNO][ 13].d[  1] =         0.270782922011;
  BAS[ATNO][ 13].a[  2] =         0.670400000000;     BAS[ATNO][ 13].d[  2] =         0.089439479170;
  BAS[ATNO][ 13].a[  3] =         4.190000000000;     BAS[ATNO][ 13].d[  3] =         0.861355494431;
  BAS[ATNO][ 13].a[  4] =         1.676000000000;     BAS[ATNO][ 13].d[  4] =        -0.369758529929;
  BAS[ATNO][ 13].a[  5] =         0.670400000000;     BAS[ATNO][ 13].d[  5] =        -0.499509787683;

-------
TIMINGS
-------

Total SCF time: 0 days 0 hours 0 min 4 sec 

Total time                  ....       4.112 sec
Sum of individual times     ....       3.878 sec  ( 94.3%)

Fock matrix formation       ....       3.455 sec  ( 84.0%)
  XC integration            ....       0.019 sec  (  0.6% of F)
    Basis function eval.    ....       0.007 sec  ( 37.1% of XC)
    Density eval.           ....       0.001 sec  (  5.1% of XC)
    XC-Functional eval.     ....       0.001 sec  (  6.4% of XC)
    XC-Potential eval.      ....       0.001 sec  (  7.2% of XC)
Diagonalization             ....       0.001 sec  (  0.0%)
Density matrix formation    ....       0.000 sec  (  0.0%)
Population analysis         ....       0.001 sec  (  0.0%)
Initial guess               ....       0.099 sec  (  2.4%)
Orbital Transformation      ....       0.000 sec  (  0.0%)
Orbital Orthonormalization  ....       0.000 sec  (  0.0%)
DIIS solution               ....       0.000 sec  (  0.0%)
SOSCF solution              ....       0.001 sec  (  0.0%)
Grid generation             ....       0.321 sec  (  7.8%)

-------------------------   --------------------
FINAL SINGLE POINT ENERGY       -93.207759309121
-------------------------   --------------------


                            ***************************************
                            *     ORCA property calculations      *
                            ***************************************

                                    ---------------------
                                    Active property flags
                                    ---------------------
   (+) Dipole Moment


------------------------------------------------------------------------------
                       ORCA ELECTRIC PROPERTIES CALCULATION
------------------------------------------------------------------------------

Dipole Moment Calculation                       ... on
Quadrupole Moment Calculation                   ... off
Polarizability Calculation                      ... off
GBWName                                         ... Ne_ano-rcc-qzp_548.143956_.gbw
Electron density file                           ... Ne_ano-rcc-qzp_548.143956_.scfp
The origin for moment calculation is the CENTER OF MASS  = ( 0.000000,  0.000000  0.000000)

-------------
DIPOLE MOMENT
-------------
                                X             Y             Z
Electronic contribution:      0.00000       0.00000       0.00000
Nuclear contribution   :      0.00000       0.00000       0.00000
                        -----------------------------------------
Total Dipole Moment    :      0.00000       0.00000       0.00000
                        -----------------------------------------
Magnitude (a.u.)       :      0.00000
Magnitude (Debye)      :      0.00000



--------------------
Rotational spectrum 
--------------------
 
Rotational constants in cm-1:     0.000000     0.000000     0.000000 
Rotational constants in MHz :     0.000000     0.000000     0.000000 

 Dipole components along the rotational axes: 
x,y,z [a.u.] :     0.000000     0.000000     0.000000 
x,y,z [Debye]:     0.000000     0.000000     0.000000 

 

Timings for individual modules:

Sum of individual times         ...        5.111 sec (=   0.085 min)
GTO integral calculation        ...        0.381 sec (=   0.006 min)   7.5 %
Relativistic integrals          ...        0.363 sec (=   0.006 min)   7.1 %
SCF iterations                  ...        4.366 sec (=   0.073 min)  85.4 %
                             ****ORCA TERMINATED NORMALLY****
TOTAL RUN TIME: 0 days 0 hours 0 minutes 5 seconds 456 msec
