
                                 *****************
                                 * O   R   C   A *
                                 *****************

           --- An Ab Initio, DFT and Semiempirical electronic structure package ---

                  #######################################################
                  #                        -***-                        #
                  #          Department of theory and spectroscopy      #
                  #               Directorship: Frank Neese             #
                  #        Max Planck Institute fuer Kohlenforschung    #
                  #                Kaiser Wilhelm Platz 1               #
                  #                 D-45470 Muelheim/Ruhr               #
                  #                      Germany                        #
                  #                                                     #
                  #                  All rights reserved                #
                  #                        -***-                        #
                  #######################################################


                         Program Version 4.2.1 -  RELEASE  -


 With contributions from (in alphabetic order):
   Daniel Aravena         : Magnetic Suceptibility
   Michael Atanasov       : Ab Initio Ligand Field Theory (pilot matlab implementation)
   Alexander A. Auer      : GIAO ZORA, VPT2
   Ute Becker             : Parallelization
   Giovanni Bistoni       : ED, misc. LED, open-shell LED, HFLD
   Martin Brehm           : Molecular dynamics
   Dmytro Bykov           : SCF Hessian
   Vijay G. Chilkuri      : MRCI spin determinant printing, contributions to CSF-ICE
   Dipayan Datta          : RHF DLPNO-CCSD density
   Achintya Kumar Dutta   : EOM-CC, STEOM-CC
   Dmitry Ganyushin       : Spin-Orbit,Spin-Spin,Magnetic field MRCI
   Miquel Garcia          : C-PCM Hessian, Gaussian charge scheme
   Yang Guo               : DLPNO-NEVPT2, CIM, IAO-localization
   Andreas Hansen         : Spin unrestricted coupled pair/coupled cluster methods
   Benjamin Helmich-Paris : CASSCF linear response (MC-RPA)
   Lee Huntington         : MR-EOM, pCC
   Robert Izsak           : Overlap fitted RIJCOSX, COSX-SCS-MP3, EOM
   Christian Kollmar      : KDIIS, OOCD, Brueckner-CCSD(T), CCSD density
   Simone Kossmann        : Meta GGA functionals, TD-DFT gradient, OOMP2, MP2 Hessian
   Martin Krupicka        : AUTO-CI
   Lucas Lang             : DCDCAS
   Dagmar Lenk            : GEPOL surface, SMD
   Dimitrios Liakos       : Extrapolation schemes; Compound Job, initial MDCI parallelization
   Dimitrios Manganas     : Further ROCIS development; embedding schemes
   Dimitrios Pantazis     : SARC Basis sets
   Taras Petrenko         : DFT Hessian,TD-DFT gradient, ASA, ECA, R-Raman, ABS, FL, XAS/XES, NRVS
   Peter Pinski           : DLPNO-MP2, DLPNO-MP2 Gradient
   Christoph Reimann      : Effective Core Potentials
   Marius Retegan         : Local ZFS, SOC
   Christoph Riplinger    : Optimizer, TS searches, QM/MM, DLPNO-CCSD(T), (RO)-DLPNO pert. Triples
   Tobias Risthaus        : Range-separated hybrids, TD-DFT gradient, RPA, STAB
   Michael Roemelt        : Original ROCIS implementation
   Masaaki Saitow         : Open-shell DLPNO-CCSD energy and density
   Barbara Sandhoefer     : DKH picture change effects
   Avijit Sen             : IP-ROCIS
   Kantharuban Sivalingam : CASSCF convergence, NEVPT2, FIC-MRCI
   Bernardo de Souza      : ESD, SOC TD-DFT
   Georgi Stoychev        : AutoAux, RI-MP2 NMR
   Willem Van den Heuvel  : Paramagnetic NMR
   Boris Wezisla          : Elementary symmetry handling
   Frank Wennmohs         : Technical directorship


 We gratefully acknowledge several colleagues who have allowed us to
 interface, adapt or use parts of their codes:
   Stefan Grimme, W. Hujo, H. Kruse,             : VdW corrections, initial TS optimization,
                  C. Bannwarth                     DFT functionals, gCP, sTDA/sTD-DF
   Ed Valeev, F. Pavosevic, A. Kumar             : LibInt (2-el integral package), F12 methods
   Garnet Chan, S. Sharma, J. Yang, R. Olivares  : DMRG
   Ulf Ekstrom                                   : XCFun DFT Library
   Mihaly Kallay                                 : mrcc  (arbitrary order and MRCC methods)
   Andreas Klamt, Michael Diedenhofen            : otool_cosmo (COSMO solvation model)
   Jiri Pittner, Ondrej Demel                    : Mk-CCSD
   Frank Weinhold                                : gennbo (NPA and NBO analysis)
   Christopher J. Cramer and Donald G. Truhlar   : smd solvation model
   Lars Goerigk                                  : TD-DFT with DH, B97 family of functionals
   V. Asgeirsson, H. Jonsson                     : NEB implementation
   FAccTs GmbH                                   : IRC, NEB, NEB-TS, Multilevel, MM, QM/MM, CI optimization
   S Lehtola, MJT Oliveira, MAL Marques          : LibXC Library


 Your calculation uses the libint2 library for the computation of 2-el integrals
 For citations please refer to: http://libint.valeyev.net

 Your ORCA version has been built with support for libXC version: 4.2.3
 For citations please refer to: https://tddft.org/programs/libxc/

 This ORCA versions uses:
   CBLAS   interface :  Fast vector & matrix operations
   LAPACKE interface :  Fast linear algebra routines
   SCALAPACK package :  Parallel linear algebra routines


----- Orbital basis set information -----
Your calculation utilizes the basis: ANO-RCC-DZP
   H, He:       P.-O. Widmark, P.-A. Malmqvist, and B. O. Roos, Theor. Chim. Acta 77, 291 (1990).
   s block:     B. O. Roos, V. Veryazov and P.-O. Widmark, Theor. Chem. Acc. 111, 345 (2004).
   p block:     B. O. Roos, R. Lindh, P.-A. Malmqvist, V. Veryazov, and P.-O. Widmark, J. Phys. Chem. A 108, 2851 (2004).
   d block:     B. O. Roos, R. Lindh, P.-A. Malmqvist, V. Veryazov, and P.-O. Widmark, J. Phys. Chem. A 109, 6575 (2005).
   actinides:   B. O. Roos, R. Lindh, P.-A. Malmqvist, V. Veryazov, and P.-O. Widmark, Chem. Phys. Letters 409, 295 (2005).
   lanthanides: B. O. Roos, R. Lindh, P.-A. Malmqvist, V. Veryazov, P.-O. Widmark and A. C. Borin, J. Phys. Chem. A 112, 11431 (2008).

================================================================================
                                        WARNINGS
                       Please study these warnings very carefully!
================================================================================


INFO   : the flag for use of LIBINT has been found!

================================================================================
                                       INPUT FILE
================================================================================
NAME = Ne_ano-rcc-dzp_1096.287912_.inp
|  1> ! LDA ano-rcc-dzp nori grid5 finalgrid6 verytightscf
|  2> %Pal NProcs 18 End
|  3> 
|  4> % REL
|  5>   Method ZORA
|  6>   ModelPot 1, 0, 0, 0
|  7>   velit 1096.287912
|  8> END
|  9> 
| 10> *xyz 8 1
| 11> Ne 0.0 0.0 0.0
| 12> **                         ****END OF INPUT****
================================================================================

                       ****************************
                       * Single Point Calculation *
                       ****************************

---------------------------------
CARTESIAN COORDINATES (ANGSTROEM)
---------------------------------
  Ne     0.000000    0.000000    0.000000

----------------------------
CARTESIAN COORDINATES (A.U.)
----------------------------
  NO LB      ZA    FRAG     MASS         X           Y           Z
   0 Ne   10.0000    0    20.179    0.000000    0.000000    0.000000

--------------------------------
INTERNAL COORDINATES (ANGSTROEM)
--------------------------------
 Ne     0   0   0     0.000000000000     0.00000000     0.00000000

---------------------------
INTERNAL COORDINATES (A.U.)
---------------------------
 Ne     0   0   0     0.000000000000     0.00000000     0.00000000

---------------------
BASIS SET INFORMATION
---------------------
There are 1 groups of distinct atoms

 Group   1 Type Ne  : 42s18p4d contracted to 3s2p1d pattern {141414/99/4}

Atom   0Ne   basis set group =>   1


           ************************************************************
           *        Program running with 18 parallel MPI-processes    *
           *              working on a common directory               *
           ************************************************************


------------------------------------------------------------------------------
                       ORCA GTO INTEGRAL CALCULATION
                     -- ANO INTEGRAL GENERATION BRANCH --
------------------------------------------------------------------------------


Gathering ANO information                         ... done
Calculation Information:
Number of atoms                                   ... 1
Number of basis functions                         ... 14
Highest angular momentum                          ... 2
Number of primitive shells                        ... 27
Total number of shells                            ... 6
Maximum number of shells                          ... 6

Getting memory                                    ... done
Making prescreening integrals                     ... done
Gathering atom contracted prescreening            ... done
Making one-electron integrals                     ... done

Timings:

Total time                                        ...    0.1 sec
Prescreening matrix                               ...    0.0 sec
One-electron matrix                               ...    0.0 sec
Two-index integrals + Cholesky                    ...    0.0 sec


           ************************************************************
           *        Program running with 18 parallel MPI-processes    *
           *              working on a common directory               *
           ************************************************************
------------------------------------------------------------------------------
                          ORCA RELATIVISTIC HAMILTONIAN
------------------------------------------------------------------------------

Relativistic Method            ... ZORA(MP)
Treatment of potential         ... Van Wuellen
Nucleus model                  ... Point Nucleus
Speed of light used            ... 1096.28791200000001


            *************************************************
            *         ZERO ORDER REGULAR APPROXIMATION      *
            *                     ZORA(MP)                  *
            *            Programmed by FN according to      *
            *                   C. van Wuellen              *
            *       J. Chem. Phys. (1998) vol 109, 392-399  *
            *************************************************

Terms included in model potential: +V(e,N)
Basis function cutoff value   ... 1.000000e-12
Loading the fitted atomic densities  (DKH4)  ... done
Calculating the cutoffs                      ... done
Number of fit functions                      ... 11
Setting up the integration grid ... done


           ************************************************************
           *        Program running with 18 parallel MPI-processes    *
           *              working on a common directory               *
           ************************************************************
-------------------------------------------------------------------------------
                                 ORCA SCF
-------------------------------------------------------------------------------

------------
SCF SETTINGS
------------
Hamiltonian:
 Density Functional     Method          .... DFT(GTOs)
 Exchange Functional    Exchange        .... Slater
   X-Alpha parameter    XAlpha          ....  0.666667
 Correlation Functional Correlation     .... VWN-5
 Gradients option       PostSCFGGA      .... off
   Density functional embedding theory  .... OFF

Relativistic Settings:
 Scalar relativistic method             .... ZORA
 Speed of light used       Velit        ....       1096.28791
Orbital energies will be scaled


General Settings:
 Integral files         IntName         .... Ne_ano-rcc-dzp_1096.287912_
 Hartree-Fock type      HFTyp           .... RHF
 Total Charge           Charge          ....    8
 Multiplicity           Mult            ....    1
 Number of Electrons    NEL             ....    2
 Basis Dimension        Dim             ....   14
 Nuclear Repulsion      ENuc            ....      0.0000000000 Eh

Convergence Acceleration:
 DIIS                   CNVDIIS         .... on
   Start iteration      DIISMaxIt       ....    12
   Startup error        DIISStart       ....  0.200000
   # of expansion vecs  DIISMaxEq       ....     5
   Bias factor          DIISBfac        ....   1.050
   Max. coefficient     DIISMaxC        ....  10.000
 Newton-Raphson         CNVNR           .... off
 SOSCF                  CNVSOSCF        .... on
   Start iteration      SOSCFMaxIt      ....   150
   Startup grad/error   SOSCFStart      ....  0.003300
 Level Shifting         CNVShift        .... on
   Level shift para.    LevelShift      ....    0.2500
   Turn off err/grad.   ShiftErr        ....    0.0010
 Zerner damping         CNVZerner       .... off
 Static damping         CNVDamp         .... on
   Fraction old density DampFac         ....    0.7000
   Max. Damping (<1)    DampMax         ....    0.9800
   Min. Damping (>=0)   DampMin         ....    0.0000
   Turn off err/grad.   DampErr         ....    0.1000
 Fernandez-Rico         CNVRico         .... off

SCF Procedure:
 Maximum # iterations   MaxIter         ....   125
 SCF integral mode      SCFMode         .... Direct
   Integral package                     .... LIBINT
 Reset frequency        DirectResetFreq ....    20
 Integral Threshold     Thresh          ....  1.000e-12 Eh
 Primitive CutOff       TCut            ....  1.000e-14 Eh

Convergence Tolerance:
 Convergence Check Mode ConvCheckMode   .... Total+1el-Energy
 Convergence forced     ConvForced      .... 0
 Energy Change          TolE            ....  1.000e-09 Eh
 1-El. energy change                    ....  1.000e-06 Eh
 Orbital Gradient       TolG            ....  2.000e-06
 Orbital Rotation angle TolX            ....  2.000e-06
 DIIS Error             TolErr          ....  1.000e-08


Diagonalization of the overlap matrix:
Smallest eigenvalue                        ... 1.000e+00
Time for diagonalization                   ...    0.001 sec
Threshold for overlap eigenvalues          ... 1.000e-08
Number of eigenvalues below threshold      ... 0
Time for construction of square roots      ...    0.001 sec
Total time needed                          ...    0.002 sec

-------------------
DFT GRID GENERATION
-------------------

General Integration Accuracy     IntAcc      ...  5.010
Radial Grid Type                 RadialGrid  ... Gauss-Chebyshev
Angular Grid (max. acc.)         AngularGrid ... Lebedev-434
Angular grid pruning method      GridPruning ... 3 (G Style)
Weight generation scheme         WeightScheme... Becke
Basis function cutoff            BFCut       ...    1.0000e-12
Integration weight cutoff        WCut        ...    1.0000e-14
Grids for H and He will be reduced by one unit

# of grid points (after initial pruning)     ...  10818 (   0.0 sec)
# of grid points (after weights+screening)   ...  10818 (   0.0 sec)
Grid point division into batches done        ...    0.1 sec
Reduced shell lists constructed in    0.1 sec

Total number of grid points                  ...    10818
Total number of batches                      ...      170
Average number of points per batch           ...       63
Average number of grid points per atom       ...    10818
Average number of shells per batch           ...     2.18 (36.36%)
Average number of basis functions per batch  ...     5.82 (41.56%)
Average number of large shells per batch     ...     0.91 (41.67%)
Average number of large basis fcns per batch ...     2.73 (46.88%)
Maximum spatial batch extension              ...  16.29, 16.29, 16.29 au
Average spatial batch extension              ...   0.85,  0.86,  0.85 au

Time for grid setup =    0.132 sec

------------------------------
INITIAL GUESS: MODEL POTENTIAL
------------------------------
Loading ZORA relativistic densities                ... done
Calculating cut-offs                               ... done
Setting up the integral package                    ... done
Initializing the effective Hamiltonian             ... done
Starting the Coulomb interaction                   ... done (   0.0 sec)
Reading the grid                                   ... done
Mapping shells                                     ... done
Starting the XC term evaluation                    ... done (   0.0 sec)
  promolecular density results
     # of electrons  =     10.000000334
     EX              =    -11.053709298
     EC              =     -0.746638772
     EX+EC           =    -11.800348070
Transforming the Hamiltonian                       ... done (   0.0 sec)
Diagonalizing the Hamiltonian                      ... done (   0.0 sec)
Back transforming the eigenvectors                 ... done (   0.0 sec)
Now organizing SCF variables                       ... done
                      ------------------
                      INITIAL GUESS DONE (   0.2 sec)
                      ------------------
--------------
SCF ITERATIONS
--------------
ITER       Energy         Delta-E        Max-DP      RMS-DP      [F,P]     Damp
               ***  Starting incremental Fock matrix formation  ***
  0    -93.1865060278   0.000000000000 0.00524276  0.00048740  0.5627290 0.7000
                      *** Initiating the SOSCF procedure ***
                      *** Re-Reading the Fockian *** 
                      *** Removing any level shift *** 
ITER      Energy       Delta-E        Grad      Rot      Max-DP    RMS-DP
  1    -93.18929978  -0.0027937526  0.000876  0.000876  0.012283  0.001141
               *** Restarting incremental Fock matrix formation ***
  2    -93.19570010  -0.0064003166  0.004191  0.000129  0.000216  0.000020
  3    -93.19570153  -0.0000014346  0.000072  0.000002  0.000004  0.000000
                 **** Energy Check signals convergence ****
              ***Rediagonalizing the Fockian in SOSCF/NRSCF***

               *****************************************************
               *                     SUCCESS                       *
               *           SCF CONVERGED AFTER   4 CYCLES          *
               *****************************************************

Setting up the final grid:

General Integration Accuracy     IntAcc      ...  5.340
Radial Grid Type                 RadialGrid  ... Gauss-Chebyshev
Angular Grid (max. acc.)         AngularGrid ... Lebedev-590
Angular grid pruning method      GridPruning ... 3 (G Style)
Weight generation scheme         WeightScheme... Becke
Basis function cutoff            BFCut       ...    1.0000e-12
Integration weight cutoff        WCut        ...    1.0000e-14
Grids for H and He will be reduced by one unit

# of grid points (after initial pruning)     ...  16840 (   0.0 sec)
# of grid points (after weights+screening)   ...  16840 (   0.0 sec)
Grid point division into batches done        ...    0.2 sec
Reduced shell lists constructed in    0.2 sec

Total number of grid points                  ...    16840
Total number of batches                      ...      264
Average number of points per batch           ...       63
Average number of grid points per atom       ...    16840
Average number of shells per batch           ...     0.56 ( 9.38%)
Average number of basis functions per batch  ...     1.69 (12.05%)
Average number of large shells per batch     ...     0.56 (100.00%)
Average number of large basis fcns per batch ...     1.69 (100.00%)
Maximum spatial batch extension              ...  16.63, 16.63, 16.63 au
Average spatial batch extension              ...   0.74,  0.74,  0.69 au

Final grid set up in    0.2 sec
Final integration                            ... done (   0.0 sec)
Change in XC energy                          ...    -0.000000701
Integrated number of electrons               ...     2.000000062
Previous integrated no of electrons          ...     1.999999970

----------------
TOTAL SCF ENERGY
----------------

Total Energy       :          -93.19570223 Eh           -2535.98398 eV

Components:
Nuclear Repulsion  :            0.00000000 Eh               0.00000 eV
Electronic Energy  :          -93.19570223 Eh           -2535.98398 eV
One Electron Energy:          -99.84711256 Eh           -2716.97806 eV
Two Electron Energy:            6.65141033 Eh             180.99408 eV

Virial components:
Potential Energy   :         -187.04297193 Eh           -5089.69802 eV
Kinetic Energy     :           93.84726969 Eh            2553.71404 eV
Virial Ratio       :            1.99305715


DFT components:
N(Alpha)           :        1.000000030761 electrons
N(Beta)            :        1.000000030761 electrons
N(Total)           :        2.000000061521 electrons
E(X)               :       -5.156876966107 Eh       
E(C)               :       -0.202752951424 Eh       
E(XC)              :       -5.359629917531 Eh       
DFET-embed. en.    :        0.000000000000 Eh       

---------------
SCF CONVERGENCE
---------------

  Last Energy change         ...   -4.2067e-10  Tolerance :   1.0000e-09
  Last MAX-Density change    ...    0.0000e+00  Tolerance :   1.0000e-08
  Last RMS-Density change    ...    0.0000e+00  Tolerance :   1.0000e-09
  Last Orbital Gradient      ...    9.4098e-10  Tolerance :   2.0000e-06
  Last Orbital Rotation      ...    0.0000e+00  Tolerance :   2.0000e-06

             **** THE GBW FILE WAS UPDATED (Ne_ano-rcc-dzp_1096.287912_.gbw) ****
             **** DENSITY FILE WAS UPDATED (Ne_ano-rcc-dzp_1096.287912_.scfp) ****
             **** ENERGY FILE WAS UPDATED (Ne_ano-rcc-dzp_1096.287912_.en.tmp) ****
             **** THE GBW FILE WAS UPDATED (Ne_ano-rcc-dzp_1096.287912_.gbw) ****
             **** DENSITY FILE WAS UPDATED (Ne_ano-rcc-dzp_1096.287912_.scfp) ****
----------------
ORBITAL ENERGIES
----------------

  NO   OCC          E(Eh)            E(eV) 
   0   2.0000     -41.461017     -1128.2116 
   1   0.0000      -9.038545      -245.9513 
   2   0.0000      -8.509264      -231.5488 
   3   0.0000      -8.509264      -231.5488 
   4   0.0000      -8.509264      -231.5488 
   5   0.0000      -3.785838      -103.0179 
   6   0.0000      -3.591610       -97.7327 
   7   0.0000      -3.591610       -97.7327 
   8   0.0000      -3.591610       -97.7327 
   9   0.0000      -3.300641       -89.8150 
  10   0.0000      -3.300641       -89.8150 
  11   0.0000      -3.300641       -89.8150 
  12   0.0000      -3.300641       -89.8150 
  13   0.0000      -3.300641       -89.8150 

                    ********************************
                    * MULLIKEN POPULATION ANALYSIS *
                    ********************************

-----------------------
MULLIKEN ATOMIC CHARGES
-----------------------
   0 Ne:    8.000000
Sum of atomic charges:    8.0000000

--------------------------------
MULLIKEN REDUCED ORBITAL CHARGES
--------------------------------
  0 Nes       :     2.000000  s :     2.000000
      pz      :     0.000000  p :     0.000000
      px      :     0.000000
      py      :     0.000000
      dz2     :     0.000000  d :     0.000000
      dxz     :     0.000000
      dyz     :     0.000000
      dx2y2   :     0.000000
      dxy     :     0.000000


                     *******************************
                     * LOEWDIN POPULATION ANALYSIS *
                     *******************************

----------------------
LOEWDIN ATOMIC CHARGES
----------------------
   0 Ne:    8.000000

-------------------------------
LOEWDIN REDUCED ORBITAL CHARGES
-------------------------------
  0 Nes       :     2.000000  s :     2.000000
      pz      :     0.000000  p :     0.000000
      px      :     0.000000
      py      :     0.000000
      dz2     :     0.000000  d :     0.000000
      dxz     :     0.000000
      dyz     :     0.000000
      dx2y2   :     0.000000
      dxy     :     0.000000


                      *****************************
                      * MAYER POPULATION ANALYSIS *
                      *****************************

  NA   - Mulliken gross atomic population
  ZA   - Total nuclear charge
  QA   - Mulliken gross atomic charge
  VA   - Mayer's total valence
  BVA  - Mayer's bonded valence
  FA   - Mayer's free valence

  ATOM       NA         ZA         QA         VA         BVA        FA
  0 Ne     2.0000    10.0000     8.0000     0.0000     0.0000     0.0000

  Mayer bond orders larger than 0.100000


--------------------------
ATOM BASIS FOR ELEMENT Ne
--------------------------
 NewGTO Ne
 S 42
    1     166165.079999999987         0.000153217982
    2      23107.524000000001         0.000635241635
    3       5060.153900000000         0.002574946092
    4       1384.612300000000         0.010128716619
    5        436.512580000000         0.035833738119
    6        153.471480000000         0.105524880383
    7         59.389087000000         0.238259632450
    8         24.861967000000         0.369251747465
    9         11.015704000000         0.305195580996
   10          4.965175000000         0.083724027470
   11          1.936503000000         0.003641492047
   12          0.765728000000         0.000957467391
   13          0.295538000000         0.000034219549
   14          0.103438000000         0.000025849660
   15     166165.079999999987         0.000000174979
   16      23107.524000000001         0.000000725386
   17       5060.153900000000         0.000002951814
   18       1384.612300000000         0.000011634388
   19        436.512580000000         0.000041954900
   20        153.471480000000         0.000127622358
   21         59.389087000000         0.000317731417
   22         24.861967000000         0.000593687853
   23         11.015704000000         0.000762632204
   24          4.965175000000         0.000035899604
   25          1.936503000000        -0.001881025588
   26          0.765728000000        -0.002665747664
   27          0.295538000000        -0.000889636715
   28          0.103438000000         0.000000908232
   29     166165.079999999987         0.000000083555
   30      23107.524000000001         0.000000343657
   31       5060.153900000000         0.000001423437
   32       1384.612300000000         0.000005469159
   33        436.512580000000         0.000020533792
   34        153.471480000000         0.000060216837
   35         59.389087000000         0.000164307916
   36         24.861967000000         0.000289698299
   37         11.015704000000         0.000531638860
   38          4.965175000000        -0.000450532871
   39          1.936503000000        -0.002315776525
   40          0.765728000000         0.000846107064
   41          0.295538000000         0.001487570123
   42          0.103438000000         0.000018808083
 S 40
    1     166165.079999999987        -0.000000785844
    2      23107.524000000001        -0.000003258107
    3       5060.153900000000        -0.000013206707
    4       1384.612300000000        -0.000051949435
    5        436.512580000000        -0.000183788580
    6        153.471480000000        -0.000541229269
    7         59.389087000000        -0.001222015947
    8         24.861967000000        -0.001893864769
    9         11.015704000000        -0.001565325452
   10          4.965175000000        -0.000429414314
   11          1.936503000000        -0.000018676942
   12          0.765728000000        -0.000004910779
   13     166165.079999999987         0.000034601073
   14      23107.524000000001         0.000143440796
   15       5060.153900000000         0.000583703404
   16       1384.612300000000         0.002300629882
   17        436.512580000000         0.008296328056
   18        153.471480000000         0.025236550427
   19         59.389087000000         0.062829468330
   20         24.861967000000         0.117398186626
   21         11.015704000000         0.150805911283
   22          4.965175000000         0.007098929857
   23          1.936503000000        -0.371961447080
   24          0.765728000000        -0.527135497194
   25          0.295538000000        -0.175920286156
   26          0.103438000000         0.000179597399
   27     166165.079999999987         0.000014472428
   28      23107.524000000001         0.000059524154
   29       5060.153900000000         0.000246550742
   30       1384.612300000000         0.000947302577
   31        436.512580000000         0.003556618855
   32        153.471480000000         0.010430043153
   33         59.389087000000         0.028459460110
   34         24.861967000000         0.050178088572
   35         11.015704000000         0.092084150630
   36          4.965175000000        -0.078035937252
   37          1.936503000000        -0.401111224839
   38          0.765728000000         0.146552587009
   39          0.295538000000         0.257659177248
   40          0.103438000000         0.003257712072
 S 40
    1     166165.079999999987         0.000000032976
    2      23107.524000000001         0.000000136717
    3       5060.153900000000         0.000000554181
    4       1384.612300000000         0.000002179909
    5        436.512580000000         0.000007712159
    6        153.471480000000         0.000022711129
    7         59.389087000000         0.000051278384
    8         24.861967000000         0.000079470587
    9         11.015704000000         0.000065684380
   10          4.965175000000         0.000018019136
   11          1.936503000000         0.000000783724
   12          0.765728000000         0.000000206067
   13     166165.079999999987         0.000011555326
   14      23107.524000000001         0.000047903286
   15       5060.153900000000         0.000194932767
   16       1384.612300000000         0.000768315116
   17        436.512580000000         0.002770630036
   18        153.471480000000         0.008427962845
   19         59.389087000000         0.020982440774
   20         24.861967000000         0.039206133098
   21         11.015704000000         0.050362929783
   22          4.965175000000         0.002370748619
   23          1.936503000000        -0.124219721110
   24          0.765728000000        -0.176041428386
   25          0.295538000000        -0.058750091052
   26          0.103438000000         0.000059978095
   27     166165.079999999987        -0.000043337258
   28      23107.524000000001        -0.000178243326
   29       5060.153900000000        -0.000738288942
   30       1384.612300000000        -0.002836669696
   31        436.512580000000        -0.010650190519
   32        153.471480000000        -0.031232457346
   33         59.389087000000        -0.085221015959
   34         24.861967000000        -0.150256809878
   35         11.015704000000        -0.275743279741
   36          4.965175000000         0.233676318108
   37          1.936503000000         1.201115761190
   38          0.765728000000        -0.438847409895
   39          0.295538000000        -0.771552825360
   40          0.103438000000        -0.009755122950
 P 18
    1        234.945000000000         0.001511418429
    2         55.077385000000         0.011655365862
    3         17.389549000000         0.052556462561
    4          6.389537000000         0.154292029157
    5          2.542082000000         0.284111690111
    6          1.033764000000         0.336943399216
    7          0.418788000000         0.240256125817
    8          0.164627000000         0.063247860638
    9          0.057619000000         0.000555205721
   10        234.945000000000         0.000935067689
   11         55.077385000000         0.007556424640
   12         17.389549000000         0.033911993164
   13          6.389537000000         0.118394401952
   14          2.542082000000         0.200938700935
   15          1.033764000000        -0.002712423089
   16          0.418788000000        -0.254053762452
   17          0.164627000000        -0.145194853344
   18          0.057619000000        -0.002838089340
 P 18
    1        234.945000000000        -0.000719971600
    2         55.077385000000        -0.005552090832
    3         17.389549000000        -0.025035529334
    4          6.389537000000        -0.073497766665
    5          2.542082000000        -0.135338000417
    6          1.033764000000        -0.160504644797
    7          0.418788000000        -0.114447186751
    8          0.164627000000        -0.030128429373
    9          0.057619000000        -0.000264474975
   10        234.945000000000         0.001962964303
   11         55.077385000000         0.015863013995
   12         17.389549000000         0.071190602403
   13          6.389537000000         0.248542418471
   14          2.542082000000         0.421825608910
   15          1.033764000000        -0.005694122216
   16          0.418788000000        -0.533328734304
   17          0.164627000000        -0.304803938404
   18          0.057619000000        -0.005957930246
 D 4
    1          6.420000000000         0.152549349869
    2          2.247000000000         0.551595029526
    3          0.786450000000         0.442341979620
    4          0.275257500000         0.045151429961
 end
  // -----------------------------------------------
  // The basis set
  // -----------------------------------------------
  BAS[ATNO] = new BFNGauss[NSH];
  // Basis function   1 L = s
  InitBFNGauss(BAS[ATNO][  0]);
  BAS[ATNO][  0].l  = 0;
  BAS[ATNO][  0].ng = 42;
  BAS[ATNO][  0].a[  0] =    166165.079999999987;     BAS[ATNO][  0].d[  0] =         0.000153217982;
  BAS[ATNO][  0].a[  1] =     23107.524000000001;     BAS[ATNO][  0].d[  1] =         0.000635241635;
  BAS[ATNO][  0].a[  2] =      5060.153900000000;     BAS[ATNO][  0].d[  2] =         0.002574946092;
  BAS[ATNO][  0].a[  3] =      1384.612300000000;     BAS[ATNO][  0].d[  3] =         0.010128716619;
  BAS[ATNO][  0].a[  4] =       436.512580000000;     BAS[ATNO][  0].d[  4] =         0.035833738119;
  BAS[ATNO][  0].a[  5] =       153.471480000000;     BAS[ATNO][  0].d[  5] =         0.105524880383;
  BAS[ATNO][  0].a[  6] =        59.389087000000;     BAS[ATNO][  0].d[  6] =         0.238259632450;
  BAS[ATNO][  0].a[  7] =        24.861967000000;     BAS[ATNO][  0].d[  7] =         0.369251747465;
  BAS[ATNO][  0].a[  8] =        11.015704000000;     BAS[ATNO][  0].d[  8] =         0.305195580996;
  BAS[ATNO][  0].a[  9] =         4.965175000000;     BAS[ATNO][  0].d[  9] =         0.083724027470;
  BAS[ATNO][  0].a[ 10] =         1.936503000000;     BAS[ATNO][  0].d[ 10] =         0.003641492047;
  BAS[ATNO][  0].a[ 11] =         0.765728000000;     BAS[ATNO][  0].d[ 11] =         0.000957467391;
  BAS[ATNO][  0].a[ 12] =         0.295538000000;     BAS[ATNO][  0].d[ 12] =         0.000034219549;
  BAS[ATNO][  0].a[ 13] =         0.103438000000;     BAS[ATNO][  0].d[ 13] =         0.000025849660;
  BAS[ATNO][  0].a[ 14] =    166165.079999999987;     BAS[ATNO][  0].d[ 14] =         0.000000174979;
  BAS[ATNO][  0].a[ 15] =     23107.524000000001;     BAS[ATNO][  0].d[ 15] =         0.000000725386;
  BAS[ATNO][  0].a[ 16] =      5060.153900000000;     BAS[ATNO][  0].d[ 16] =         0.000002951814;
  BAS[ATNO][  0].a[ 17] =      1384.612300000000;     BAS[ATNO][  0].d[ 17] =         0.000011634388;
  BAS[ATNO][  0].a[ 18] =       436.512580000000;     BAS[ATNO][  0].d[ 18] =         0.000041954900;
  BAS[ATNO][  0].a[ 19] =       153.471480000000;     BAS[ATNO][  0].d[ 19] =         0.000127622358;
  BAS[ATNO][  0].a[ 20] =        59.389087000000;     BAS[ATNO][  0].d[ 20] =         0.000317731417;
  BAS[ATNO][  0].a[ 21] =        24.861967000000;     BAS[ATNO][  0].d[ 21] =         0.000593687853;
  BAS[ATNO][  0].a[ 22] =        11.015704000000;     BAS[ATNO][  0].d[ 22] =         0.000762632204;
  BAS[ATNO][  0].a[ 23] =         4.965175000000;     BAS[ATNO][  0].d[ 23] =         0.000035899604;
  BAS[ATNO][  0].a[ 24] =         1.936503000000;     BAS[ATNO][  0].d[ 24] =        -0.001881025588;
  BAS[ATNO][  0].a[ 25] =         0.765728000000;     BAS[ATNO][  0].d[ 25] =        -0.002665747664;
  BAS[ATNO][  0].a[ 26] =         0.295538000000;     BAS[ATNO][  0].d[ 26] =        -0.000889636715;
  BAS[ATNO][  0].a[ 27] =         0.103438000000;     BAS[ATNO][  0].d[ 27] =         0.000000908232;
  BAS[ATNO][  0].a[ 28] =    166165.079999999987;     BAS[ATNO][  0].d[ 28] =         0.000000083555;
  BAS[ATNO][  0].a[ 29] =     23107.524000000001;     BAS[ATNO][  0].d[ 29] =         0.000000343657;
  BAS[ATNO][  0].a[ 30] =      5060.153900000000;     BAS[ATNO][  0].d[ 30] =         0.000001423437;
  BAS[ATNO][  0].a[ 31] =      1384.612300000000;     BAS[ATNO][  0].d[ 31] =         0.000005469159;
  BAS[ATNO][  0].a[ 32] =       436.512580000000;     BAS[ATNO][  0].d[ 32] =         0.000020533792;
  BAS[ATNO][  0].a[ 33] =       153.471480000000;     BAS[ATNO][  0].d[ 33] =         0.000060216837;
  BAS[ATNO][  0].a[ 34] =        59.389087000000;     BAS[ATNO][  0].d[ 34] =         0.000164307916;
  BAS[ATNO][  0].a[ 35] =        24.861967000000;     BAS[ATNO][  0].d[ 35] =         0.000289698299;
  BAS[ATNO][  0].a[ 36] =        11.015704000000;     BAS[ATNO][  0].d[ 36] =         0.000531638860;
  BAS[ATNO][  0].a[ 37] =         4.965175000000;     BAS[ATNO][  0].d[ 37] =        -0.000450532871;
  BAS[ATNO][  0].a[ 38] =         1.936503000000;     BAS[ATNO][  0].d[ 38] =        -0.002315776525;
  BAS[ATNO][  0].a[ 39] =         0.765728000000;     BAS[ATNO][  0].d[ 39] =         0.000846107064;
  BAS[ATNO][  0].a[ 40] =         0.295538000000;     BAS[ATNO][  0].d[ 40] =         0.001487570123;
  BAS[ATNO][  0].a[ 41] =         0.103438000000;     BAS[ATNO][  0].d[ 41] =         0.000018808083;

  // Basis function   2 L = s
  InitBFNGauss(BAS[ATNO][  1]);
  BAS[ATNO][  1].l  = 0;
  BAS[ATNO][  1].ng = 40;
  BAS[ATNO][  1].a[  0] =    166165.079999999987;     BAS[ATNO][  1].d[  0] =         0.000000785844;
  BAS[ATNO][  1].a[  1] =     23107.524000000001;     BAS[ATNO][  1].d[  1] =         0.000003258107;
  BAS[ATNO][  1].a[  2] =      5060.153900000000;     BAS[ATNO][  1].d[  2] =         0.000013206707;
  BAS[ATNO][  1].a[  3] =      1384.612300000000;     BAS[ATNO][  1].d[  3] =         0.000051949435;
  BAS[ATNO][  1].a[  4] =       436.512580000000;     BAS[ATNO][  1].d[  4] =         0.000183788580;
  BAS[ATNO][  1].a[  5] =       153.471480000000;     BAS[ATNO][  1].d[  5] =         0.000541229269;
  BAS[ATNO][  1].a[  6] =        59.389087000000;     BAS[ATNO][  1].d[  6] =         0.001222015947;
  BAS[ATNO][  1].a[  7] =        24.861967000000;     BAS[ATNO][  1].d[  7] =         0.001893864769;
  BAS[ATNO][  1].a[  8] =        11.015704000000;     BAS[ATNO][  1].d[  8] =         0.001565325452;
  BAS[ATNO][  1].a[  9] =         4.965175000000;     BAS[ATNO][  1].d[  9] =         0.000429414314;
  BAS[ATNO][  1].a[ 10] =         1.936503000000;     BAS[ATNO][  1].d[ 10] =         0.000018676942;
  BAS[ATNO][  1].a[ 11] =         0.765728000000;     BAS[ATNO][  1].d[ 11] =         0.000004910779;
  BAS[ATNO][  1].a[ 12] =    166165.079999999987;     BAS[ATNO][  1].d[ 12] =        -0.000034601073;
  BAS[ATNO][  1].a[ 13] =     23107.524000000001;     BAS[ATNO][  1].d[ 13] =        -0.000143440796;
  BAS[ATNO][  1].a[ 14] =      5060.153900000000;     BAS[ATNO][  1].d[ 14] =        -0.000583703404;
  BAS[ATNO][  1].a[ 15] =      1384.612300000000;     BAS[ATNO][  1].d[ 15] =        -0.002300629882;
  BAS[ATNO][  1].a[ 16] =       436.512580000000;     BAS[ATNO][  1].d[ 16] =        -0.008296328056;
  BAS[ATNO][  1].a[ 17] =       153.471480000000;     BAS[ATNO][  1].d[ 17] =        -0.025236550427;
  BAS[ATNO][  1].a[ 18] =        59.389087000000;     BAS[ATNO][  1].d[ 18] =        -0.062829468330;
  BAS[ATNO][  1].a[ 19] =        24.861967000000;     BAS[ATNO][  1].d[ 19] =        -0.117398186626;
  BAS[ATNO][  1].a[ 20] =        11.015704000000;     BAS[ATNO][  1].d[ 20] =        -0.150805911283;
  BAS[ATNO][  1].a[ 21] =         4.965175000000;     BAS[ATNO][  1].d[ 21] =        -0.007098929857;
  BAS[ATNO][  1].a[ 22] =         1.936503000000;     BAS[ATNO][  1].d[ 22] =         0.371961447080;
  BAS[ATNO][  1].a[ 23] =         0.765728000000;     BAS[ATNO][  1].d[ 23] =         0.527135497194;
  BAS[ATNO][  1].a[ 24] =         0.295538000000;     BAS[ATNO][  1].d[ 24] =         0.175920286156;
  BAS[ATNO][  1].a[ 25] =         0.103438000000;     BAS[ATNO][  1].d[ 25] =        -0.000179597399;
  BAS[ATNO][  1].a[ 26] =    166165.079999999987;     BAS[ATNO][  1].d[ 26] =        -0.000014472428;
  BAS[ATNO][  1].a[ 27] =     23107.524000000001;     BAS[ATNO][  1].d[ 27] =        -0.000059524154;
  BAS[ATNO][  1].a[ 28] =      5060.153900000000;     BAS[ATNO][  1].d[ 28] =        -0.000246550742;
  BAS[ATNO][  1].a[ 29] =      1384.612300000000;     BAS[ATNO][  1].d[ 29] =        -0.000947302577;
  BAS[ATNO][  1].a[ 30] =       436.512580000000;     BAS[ATNO][  1].d[ 30] =        -0.003556618855;
  BAS[ATNO][  1].a[ 31] =       153.471480000000;     BAS[ATNO][  1].d[ 31] =        -0.010430043153;
  BAS[ATNO][  1].a[ 32] =        59.389087000000;     BAS[ATNO][  1].d[ 32] =        -0.028459460110;
  BAS[ATNO][  1].a[ 33] =        24.861967000000;     BAS[ATNO][  1].d[ 33] =        -0.050178088572;
  BAS[ATNO][  1].a[ 34] =        11.015704000000;     BAS[ATNO][  1].d[ 34] =        -0.092084150630;
  BAS[ATNO][  1].a[ 35] =         4.965175000000;     BAS[ATNO][  1].d[ 35] =         0.078035937252;
  BAS[ATNO][  1].a[ 36] =         1.936503000000;     BAS[ATNO][  1].d[ 36] =         0.401111224839;
  BAS[ATNO][  1].a[ 37] =         0.765728000000;     BAS[ATNO][  1].d[ 37] =        -0.146552587009;
  BAS[ATNO][  1].a[ 38] =         0.295538000000;     BAS[ATNO][  1].d[ 38] =        -0.257659177248;
  BAS[ATNO][  1].a[ 39] =         0.103438000000;     BAS[ATNO][  1].d[ 39] =        -0.003257712072;

  // Basis function   3 L = s
  InitBFNGauss(BAS[ATNO][  2]);
  BAS[ATNO][  2].l  = 0;
  BAS[ATNO][  2].ng = 40;
  BAS[ATNO][  2].a[  0] =    166165.079999999987;     BAS[ATNO][  2].d[  0] =         0.000000032976;
  BAS[ATNO][  2].a[  1] =     23107.524000000001;     BAS[ATNO][  2].d[  1] =         0.000000136717;
  BAS[ATNO][  2].a[  2] =      5060.153900000000;     BAS[ATNO][  2].d[  2] =         0.000000554181;
  BAS[ATNO][  2].a[  3] =      1384.612300000000;     BAS[ATNO][  2].d[  3] =         0.000002179909;
  BAS[ATNO][  2].a[  4] =       436.512580000000;     BAS[ATNO][  2].d[  4] =         0.000007712159;
  BAS[ATNO][  2].a[  5] =       153.471480000000;     BAS[ATNO][  2].d[  5] =         0.000022711129;
  BAS[ATNO][  2].a[  6] =        59.389087000000;     BAS[ATNO][  2].d[  6] =         0.000051278384;
  BAS[ATNO][  2].a[  7] =        24.861967000000;     BAS[ATNO][  2].d[  7] =         0.000079470587;
  BAS[ATNO][  2].a[  8] =        11.015704000000;     BAS[ATNO][  2].d[  8] =         0.000065684380;
  BAS[ATNO][  2].a[  9] =         4.965175000000;     BAS[ATNO][  2].d[  9] =         0.000018019136;
  BAS[ATNO][  2].a[ 10] =         1.936503000000;     BAS[ATNO][  2].d[ 10] =         0.000000783724;
  BAS[ATNO][  2].a[ 11] =         0.765728000000;     BAS[ATNO][  2].d[ 11] =         0.000000206067;
  BAS[ATNO][  2].a[ 12] =    166165.079999999987;     BAS[ATNO][  2].d[ 12] =         0.000011555326;
  BAS[ATNO][  2].a[ 13] =     23107.524000000001;     BAS[ATNO][  2].d[ 13] =         0.000047903286;
  BAS[ATNO][  2].a[ 14] =      5060.153900000000;     BAS[ATNO][  2].d[ 14] =         0.000194932767;
  BAS[ATNO][  2].a[ 15] =      1384.612300000000;     BAS[ATNO][  2].d[ 15] =         0.000768315116;
  BAS[ATNO][  2].a[ 16] =       436.512580000000;     BAS[ATNO][  2].d[ 16] =         0.002770630036;
  BAS[ATNO][  2].a[ 17] =       153.471480000000;     BAS[ATNO][  2].d[ 17] =         0.008427962845;
  BAS[ATNO][  2].a[ 18] =        59.389087000000;     BAS[ATNO][  2].d[ 18] =         0.020982440774;
  BAS[ATNO][  2].a[ 19] =        24.861967000000;     BAS[ATNO][  2].d[ 19] =         0.039206133098;
  BAS[ATNO][  2].a[ 20] =        11.015704000000;     BAS[ATNO][  2].d[ 20] =         0.050362929783;
  BAS[ATNO][  2].a[ 21] =         4.965175000000;     BAS[ATNO][  2].d[ 21] =         0.002370748619;
  BAS[ATNO][  2].a[ 22] =         1.936503000000;     BAS[ATNO][  2].d[ 22] =        -0.124219721110;
  BAS[ATNO][  2].a[ 23] =         0.765728000000;     BAS[ATNO][  2].d[ 23] =        -0.176041428386;
  BAS[ATNO][  2].a[ 24] =         0.295538000000;     BAS[ATNO][  2].d[ 24] =        -0.058750091052;
  BAS[ATNO][  2].a[ 25] =         0.103438000000;     BAS[ATNO][  2].d[ 25] =         0.000059978095;
  BAS[ATNO][  2].a[ 26] =    166165.079999999987;     BAS[ATNO][  2].d[ 26] =        -0.000043337258;
  BAS[ATNO][  2].a[ 27] =     23107.524000000001;     BAS[ATNO][  2].d[ 27] =        -0.000178243326;
  BAS[ATNO][  2].a[ 28] =      5060.153900000000;     BAS[ATNO][  2].d[ 28] =        -0.000738288942;
  BAS[ATNO][  2].a[ 29] =      1384.612300000000;     BAS[ATNO][  2].d[ 29] =        -0.002836669696;
  BAS[ATNO][  2].a[ 30] =       436.512580000000;     BAS[ATNO][  2].d[ 30] =        -0.010650190519;
  BAS[ATNO][  2].a[ 31] =       153.471480000000;     BAS[ATNO][  2].d[ 31] =        -0.031232457346;
  BAS[ATNO][  2].a[ 32] =        59.389087000000;     BAS[ATNO][  2].d[ 32] =        -0.085221015959;
  BAS[ATNO][  2].a[ 33] =        24.861967000000;     BAS[ATNO][  2].d[ 33] =        -0.150256809878;
  BAS[ATNO][  2].a[ 34] =        11.015704000000;     BAS[ATNO][  2].d[ 34] =        -0.275743279741;
  BAS[ATNO][  2].a[ 35] =         4.965175000000;     BAS[ATNO][  2].d[ 35] =         0.233676318108;
  BAS[ATNO][  2].a[ 36] =         1.936503000000;     BAS[ATNO][  2].d[ 36] =         1.201115761190;
  BAS[ATNO][  2].a[ 37] =         0.765728000000;     BAS[ATNO][  2].d[ 37] =        -0.438847409895;
  BAS[ATNO][  2].a[ 38] =         0.295538000000;     BAS[ATNO][  2].d[ 38] =        -0.771552825360;
  BAS[ATNO][  2].a[ 39] =         0.103438000000;     BAS[ATNO][  2].d[ 39] =        -0.009755122950;

  // Basis function   4 L = p
  InitBFNGauss(BAS[ATNO][  3]);
  BAS[ATNO][  3].l  = 1;
  BAS[ATNO][  3].ng = 18;
  BAS[ATNO][  3].a[  0] =       234.945000000000;     BAS[ATNO][  3].d[  0] =         0.001511418429;
  BAS[ATNO][  3].a[  1] =        55.077385000000;     BAS[ATNO][  3].d[  1] =         0.011655365862;
  BAS[ATNO][  3].a[  2] =        17.389549000000;     BAS[ATNO][  3].d[  2] =         0.052556462561;
  BAS[ATNO][  3].a[  3] =         6.389537000000;     BAS[ATNO][  3].d[  3] =         0.154292029157;
  BAS[ATNO][  3].a[  4] =         2.542082000000;     BAS[ATNO][  3].d[  4] =         0.284111690111;
  BAS[ATNO][  3].a[  5] =         1.033764000000;     BAS[ATNO][  3].d[  5] =         0.336943399216;
  BAS[ATNO][  3].a[  6] =         0.418788000000;     BAS[ATNO][  3].d[  6] =         0.240256125817;
  BAS[ATNO][  3].a[  7] =         0.164627000000;     BAS[ATNO][  3].d[  7] =         0.063247860638;
  BAS[ATNO][  3].a[  8] =         0.057619000000;     BAS[ATNO][  3].d[  8] =         0.000555205721;
  BAS[ATNO][  3].a[  9] =       234.945000000000;     BAS[ATNO][  3].d[  9] =         0.000935067689;
  BAS[ATNO][  3].a[ 10] =        55.077385000000;     BAS[ATNO][  3].d[ 10] =         0.007556424640;
  BAS[ATNO][  3].a[ 11] =        17.389549000000;     BAS[ATNO][  3].d[ 11] =         0.033911993164;
  BAS[ATNO][  3].a[ 12] =         6.389537000000;     BAS[ATNO][  3].d[ 12] =         0.118394401952;
  BAS[ATNO][  3].a[ 13] =         2.542082000000;     BAS[ATNO][  3].d[ 13] =         0.200938700935;
  BAS[ATNO][  3].a[ 14] =         1.033764000000;     BAS[ATNO][  3].d[ 14] =        -0.002712423089;
  BAS[ATNO][  3].a[ 15] =         0.418788000000;     BAS[ATNO][  3].d[ 15] =        -0.254053762452;
  BAS[ATNO][  3].a[ 16] =         0.164627000000;     BAS[ATNO][  3].d[ 16] =        -0.145194853344;
  BAS[ATNO][  3].a[ 17] =         0.057619000000;     BAS[ATNO][  3].d[ 17] =        -0.002838089340;

  // Basis function   5 L = p
  InitBFNGauss(BAS[ATNO][  4]);
  BAS[ATNO][  4].l  = 1;
  BAS[ATNO][  4].ng = 18;
  BAS[ATNO][  4].a[  0] =       234.945000000000;     BAS[ATNO][  4].d[  0] =         0.000719971600;
  BAS[ATNO][  4].a[  1] =        55.077385000000;     BAS[ATNO][  4].d[  1] =         0.005552090832;
  BAS[ATNO][  4].a[  2] =        17.389549000000;     BAS[ATNO][  4].d[  2] =         0.025035529334;
  BAS[ATNO][  4].a[  3] =         6.389537000000;     BAS[ATNO][  4].d[  3] =         0.073497766665;
  BAS[ATNO][  4].a[  4] =         2.542082000000;     BAS[ATNO][  4].d[  4] =         0.135338000417;
  BAS[ATNO][  4].a[  5] =         1.033764000000;     BAS[ATNO][  4].d[  5] =         0.160504644797;
  BAS[ATNO][  4].a[  6] =         0.418788000000;     BAS[ATNO][  4].d[  6] =         0.114447186751;
  BAS[ATNO][  4].a[  7] =         0.164627000000;     BAS[ATNO][  4].d[  7] =         0.030128429373;
  BAS[ATNO][  4].a[  8] =         0.057619000000;     BAS[ATNO][  4].d[  8] =         0.000264474975;
  BAS[ATNO][  4].a[  9] =       234.945000000000;     BAS[ATNO][  4].d[  9] =        -0.001962964303;
  BAS[ATNO][  4].a[ 10] =        55.077385000000;     BAS[ATNO][  4].d[ 10] =        -0.015863013995;
  BAS[ATNO][  4].a[ 11] =        17.389549000000;     BAS[ATNO][  4].d[ 11] =        -0.071190602403;
  BAS[ATNO][  4].a[ 12] =         6.389537000000;     BAS[ATNO][  4].d[ 12] =        -0.248542418471;
  BAS[ATNO][  4].a[ 13] =         2.542082000000;     BAS[ATNO][  4].d[ 13] =        -0.421825608910;
  BAS[ATNO][  4].a[ 14] =         1.033764000000;     BAS[ATNO][  4].d[ 14] =         0.005694122216;
  BAS[ATNO][  4].a[ 15] =         0.418788000000;     BAS[ATNO][  4].d[ 15] =         0.533328734304;
  BAS[ATNO][  4].a[ 16] =         0.164627000000;     BAS[ATNO][  4].d[ 16] =         0.304803938404;
  BAS[ATNO][  4].a[ 17] =         0.057619000000;     BAS[ATNO][  4].d[ 17] =         0.005957930246;

  // Basis function   6 L = d
  InitBFNGauss(BAS[ATNO][  5]);
  BAS[ATNO][  5].l  = 2;
  BAS[ATNO][  5].ng = 4;
  BAS[ATNO][  5].a[  0] =         6.420000000000;     BAS[ATNO][  5].d[  0] =         0.152549349869;
  BAS[ATNO][  5].a[  1] =         2.247000000000;     BAS[ATNO][  5].d[  1] =         0.551595029526;
  BAS[ATNO][  5].a[  2] =         0.786450000000;     BAS[ATNO][  5].d[  2] =         0.442341979620;
  BAS[ATNO][  5].a[  3] =         0.275257500000;     BAS[ATNO][  5].d[  3] =         0.045151429961;

-------
TIMINGS
-------

Total SCF time: 0 days 0 hours 0 min 1 sec 

Total time                  ....       1.598 sec
Sum of individual times     ....       1.391 sec  ( 87.1%)

Fock matrix formation       ....       0.978 sec  ( 61.2%)
  XC integration            ....       0.014 sec  (  1.4% of F)
    Basis function eval.    ....       0.004 sec  ( 26.0% of XC)
    Density eval.           ....       0.000 sec  (  3.6% of XC)
    XC-Functional eval.     ....       0.001 sec  (  8.7% of XC)
    XC-Potential eval.      ....       0.000 sec  (  1.3% of XC)
Diagonalization             ....       0.000 sec  (  0.0%)
Density matrix formation    ....       0.000 sec  (  0.0%)
Population analysis         ....       0.000 sec  (  0.0%)
Initial guess               ....       0.087 sec  (  5.4%)
Orbital Transformation      ....       0.000 sec  (  0.0%)
Orbital Orthonormalization  ....       0.000 sec  (  0.0%)
DIIS solution               ....       0.000 sec  (  0.0%)
SOSCF solution              ....       0.000 sec  (  0.0%)
Grid generation             ....       0.325 sec  ( 20.3%)

-------------------------   --------------------
FINAL SINGLE POINT ENERGY       -93.195702232642
-------------------------   --------------------


                            ***************************************
                            *     ORCA property calculations      *
                            ***************************************

                                    ---------------------
                                    Active property flags
                                    ---------------------
   (+) Dipole Moment


------------------------------------------------------------------------------
                       ORCA ELECTRIC PROPERTIES CALCULATION
------------------------------------------------------------------------------

Dipole Moment Calculation                       ... on
Quadrupole Moment Calculation                   ... off
Polarizability Calculation                      ... off
GBWName                                         ... Ne_ano-rcc-dzp_1096.287912_.gbw
Electron density file                           ... Ne_ano-rcc-dzp_1096.287912_.scfp
The origin for moment calculation is the CENTER OF MASS  = ( 0.000000,  0.000000  0.000000)

-------------
DIPOLE MOMENT
-------------
                                X             Y             Z
Electronic contribution:     -0.00000       0.00000      -0.00000
Nuclear contribution   :      0.00000       0.00000       0.00000
                        -----------------------------------------
Total Dipole Moment    :     -0.00000       0.00000      -0.00000
                        -----------------------------------------
Magnitude (a.u.)       :      0.00000
Magnitude (Debye)      :      0.00000



--------------------
Rotational spectrum 
--------------------
 
Rotational constants in cm-1:     0.000000     0.000000     0.000000 
Rotational constants in MHz :     0.000000     0.000000     0.000000 

 Dipole components along the rotational axes: 
x,y,z [a.u.] :    -0.000000     0.000000    -0.000000 
x,y,z [Debye]:    -0.000000     0.000000    -0.000000 

 

Timings for individual modules:

Sum of individual times         ...        2.546 sec (=   0.042 min)
GTO integral calculation        ...        0.334 sec (=   0.006 min)  13.1 %
Relativistic integrals          ...        0.353 sec (=   0.006 min)  13.9 %
SCF iterations                  ...        1.860 sec (=   0.031 min)  73.0 %
                             ****ORCA TERMINATED NORMALLY****
TOTAL RUN TIME: 0 days 0 hours 0 minutes 2 seconds 885 msec
