
                                 *****************
                                 * O   R   C   A *
                                 *****************

           --- An Ab Initio, DFT and Semiempirical electronic structure package ---

                  #######################################################
                  #                        -***-                        #
                  #          Department of theory and spectroscopy      #
                  #               Directorship: Frank Neese             #
                  #        Max Planck Institute fuer Kohlenforschung    #
                  #                Kaiser Wilhelm Platz 1               #
                  #                 D-45470 Muelheim/Ruhr               #
                  #                      Germany                        #
                  #                                                     #
                  #                  All rights reserved                #
                  #                        -***-                        #
                  #######################################################


                         Program Version 4.2.1 -  RELEASE  -


 With contributions from (in alphabetic order):
   Daniel Aravena         : Magnetic Suceptibility
   Michael Atanasov       : Ab Initio Ligand Field Theory (pilot matlab implementation)
   Alexander A. Auer      : GIAO ZORA, VPT2
   Ute Becker             : Parallelization
   Giovanni Bistoni       : ED, misc. LED, open-shell LED, HFLD
   Martin Brehm           : Molecular dynamics
   Dmytro Bykov           : SCF Hessian
   Vijay G. Chilkuri      : MRCI spin determinant printing, contributions to CSF-ICE
   Dipayan Datta          : RHF DLPNO-CCSD density
   Achintya Kumar Dutta   : EOM-CC, STEOM-CC
   Dmitry Ganyushin       : Spin-Orbit,Spin-Spin,Magnetic field MRCI
   Miquel Garcia          : C-PCM Hessian, Gaussian charge scheme
   Yang Guo               : DLPNO-NEVPT2, CIM, IAO-localization
   Andreas Hansen         : Spin unrestricted coupled pair/coupled cluster methods
   Benjamin Helmich-Paris : CASSCF linear response (MC-RPA)
   Lee Huntington         : MR-EOM, pCC
   Robert Izsak           : Overlap fitted RIJCOSX, COSX-SCS-MP3, EOM
   Christian Kollmar      : KDIIS, OOCD, Brueckner-CCSD(T), CCSD density
   Simone Kossmann        : Meta GGA functionals, TD-DFT gradient, OOMP2, MP2 Hessian
   Martin Krupicka        : AUTO-CI
   Lucas Lang             : DCDCAS
   Dagmar Lenk            : GEPOL surface, SMD
   Dimitrios Liakos       : Extrapolation schemes; Compound Job, initial MDCI parallelization
   Dimitrios Manganas     : Further ROCIS development; embedding schemes
   Dimitrios Pantazis     : SARC Basis sets
   Taras Petrenko         : DFT Hessian,TD-DFT gradient, ASA, ECA, R-Raman, ABS, FL, XAS/XES, NRVS
   Peter Pinski           : DLPNO-MP2, DLPNO-MP2 Gradient
   Christoph Reimann      : Effective Core Potentials
   Marius Retegan         : Local ZFS, SOC
   Christoph Riplinger    : Optimizer, TS searches, QM/MM, DLPNO-CCSD(T), (RO)-DLPNO pert. Triples
   Tobias Risthaus        : Range-separated hybrids, TD-DFT gradient, RPA, STAB
   Michael Roemelt        : Original ROCIS implementation
   Masaaki Saitow         : Open-shell DLPNO-CCSD energy and density
   Barbara Sandhoefer     : DKH picture change effects
   Avijit Sen             : IP-ROCIS
   Kantharuban Sivalingam : CASSCF convergence, NEVPT2, FIC-MRCI
   Bernardo de Souza      : ESD, SOC TD-DFT
   Georgi Stoychev        : AutoAux, RI-MP2 NMR
   Willem Van den Heuvel  : Paramagnetic NMR
   Boris Wezisla          : Elementary symmetry handling
   Frank Wennmohs         : Technical directorship


 We gratefully acknowledge several colleagues who have allowed us to
 interface, adapt or use parts of their codes:
   Stefan Grimme, W. Hujo, H. Kruse,             : VdW corrections, initial TS optimization,
                  C. Bannwarth                     DFT functionals, gCP, sTDA/sTD-DF
   Ed Valeev, F. Pavosevic, A. Kumar             : LibInt (2-el integral package), F12 methods
   Garnet Chan, S. Sharma, J. Yang, R. Olivares  : DMRG
   Ulf Ekstrom                                   : XCFun DFT Library
   Mihaly Kallay                                 : mrcc  (arbitrary order and MRCC methods)
   Andreas Klamt, Michael Diedenhofen            : otool_cosmo (COSMO solvation model)
   Jiri Pittner, Ondrej Demel                    : Mk-CCSD
   Frank Weinhold                                : gennbo (NPA and NBO analysis)
   Christopher J. Cramer and Donald G. Truhlar   : smd solvation model
   Lars Goerigk                                  : TD-DFT with DH, B97 family of functionals
   V. Asgeirsson, H. Jonsson                     : NEB implementation
   FAccTs GmbH                                   : IRC, NEB, NEB-TS, Multilevel, MM, QM/MM, CI optimization
   S Lehtola, MJT Oliveira, MAL Marques          : LibXC Library


 Your calculation uses the libint2 library for the computation of 2-el integrals
 For citations please refer to: http://libint.valeyev.net

 Your ORCA version has been built with support for libXC version: 4.2.3
 For citations please refer to: https://tddft.org/programs/libxc/

 This ORCA versions uses:
   CBLAS   interface :  Fast vector & matrix operations
   LAPACKE interface :  Fast linear algebra routines
   SCALAPACK package :  Parallel linear algebra routines


----- Orbital basis set information -----
Your calculation utilizes the basis: cc-pCVTZ 
             H : cc-pVTZ. Obtained from the ccRepo (grant-hill.group.shef.ac.uk/ccrepo) Feb. 2017
                 T. H. Dunning, Jr., J. Chem. Phys. 90, 1007 (1989)
            He : cc-pVTZ. Obtained from the ccRepo (grant-hill.group.shef.ac.uk/ccrepo) Feb. 2017
                 D. E. Woon, T. H. Dunning, Jr., J. Chem. Phys. 100, 2975 (1994)
  Li-Be, Na-Mg : Obtained from the ccRepo (grant-hill.group.shef.ac.uk/ccrepo) Feb. 2017
                 B. P. Prascher, D. E. Woon, K. A. Peterson, T. H. Dunning, Jr., A. K. Wilson, Theor. Chem. Acc. 128, 69 (2011)
          B-Ne : Obtained from the ccRepo (grant-hill.group.shef.ac.uk/ccrepo) Feb. 2017
                 D. E. Woon, T. H. Dunning, Jr., J. Chem. Phys. 103, 4572 (1995)
                  K. A. Peterson, T. H. Dunning, Jr., J. Chem. Phys. 117, 10548 (2002)
         Al-Ar : Obtained from the EMSL Basis Set Exchange (bse.pnl.gov) Feb. 2017
                 K. A. Peterson, T. H. Dunning, Jr., J. Chem. Phys. 117, 10548 (2002)
            Ca : Obtained from the Peterson Research Group Website (tyr0.chem.wsu.edu/~kipeters) Feb. 2017
                 J. Koput, K. A. Peterson, J. Phys. Chem. 106, 9595 (2002)
         Ga-Kr : Obtained from the Peterson Research Group Website (tyr0.chem.wsu.edu/~kipeters) Feb. 2017
                 N. J. DeYonker, K. A. Peterson, A. K. Wilson, J. Phys. Chem. A 111, 11383 (2007)

================================================================================
                                        WARNINGS
                       Please study these warnings very carefully!
================================================================================


INFO   : the flag for use of LIBINT has been found!

================================================================================
                                       INPUT FILE
================================================================================
NAME = Ne_cc-pcvtz_137.035989_.inp
|  1> ! LDA cc-pcvtz nori grid5 finalgrid6 verytightscf
|  2> %Pal NProcs 18 End
|  3> 
|  4> % REL
|  5>   Method ZORA
|  6>   ModelPot 1, 0, 0, 0
|  7>   velit 137.035989
|  8> END
|  9> 
| 10> *xyz 8 1
| 11> Ne 0.0 0.0 0.0
| 12> **                         ****END OF INPUT****
================================================================================

                       ****************************
                       * Single Point Calculation *
                       ****************************

---------------------------------
CARTESIAN COORDINATES (ANGSTROEM)
---------------------------------
  Ne     0.000000    0.000000    0.000000

----------------------------
CARTESIAN COORDINATES (A.U.)
----------------------------
  NO LB      ZA    FRAG     MASS         X           Y           Z
   0 Ne   10.0000    0    20.179    0.000000    0.000000    0.000000

--------------------------------
INTERNAL COORDINATES (ANGSTROEM)
--------------------------------
 Ne     0   0   0     0.000000000000     0.00000000     0.00000000

---------------------------
INTERNAL COORDINATES (A.U.)
---------------------------
 Ne     0   0   0     0.000000000000     0.00000000     0.00000000

---------------------
BASIS SET INFORMATION
---------------------
There are 1 groups of distinct atoms

 Group   1 Type Ne  : 20s7p3d1f contracted to 6s5p3d1f pattern {881111/31111/111/1}

Atom   0Ne   basis set group =>   1


           ************************************************************
           *        Program running with 18 parallel MPI-processes    *
           *              working on a common directory               *
           ************************************************************
------------------------------------------------------------------------------
                           ORCA GTO INTEGRAL CALCULATION
------------------------------------------------------------------------------

                         BASIS SET STATISTICS AND STARTUP INFO

 # of primitive gaussian shells          ...   31
 # of primitive gaussian functions       ...   63
 # of contracted shells                  ...   15
 # of contracted basis functions         ...   43
 Highest angular momentum                ...    3
 Maximum contraction depth               ...    8
 Integral package used                   ... LIBINT
 Integral threshhold            Thresh   ...  1.000e-12
 Primitive cut-off              TCut     ...  1.000e-14


------------------------------ INTEGRAL EVALUATION ----------------------------


 * One electron integrals 
 Pre-screening matrix                    ... done
 Shell pair data                         ... done (   0.000 sec)



           ************************************************************
           *        Program running with 18 parallel MPI-processes    *
           *              working on a common directory               *
           ************************************************************
------------------------------------------------------------------------------
                          ORCA RELATIVISTIC HAMILTONIAN
------------------------------------------------------------------------------

Relativistic Method            ... ZORA(MP)
Treatment of potential         ... Van Wuellen
Nucleus model                  ... Point Nucleus
Speed of light used            ... 137.03598900000000


            *************************************************
            *         ZERO ORDER REGULAR APPROXIMATION      *
            *                     ZORA(MP)                  *
            *            Programmed by FN according to      *
            *                   C. van Wuellen              *
            *       J. Chem. Phys. (1998) vol 109, 392-399  *
            *************************************************

Terms included in model potential: +V(e,N)
Basis function cutoff value   ... 1.000000e-12
Loading the fitted atomic densities  (DKH4)  ... done
Calculating the cutoffs                      ... done
Number of fit functions                      ... 11
Setting up the integration grid ... done


           ************************************************************
           *        Program running with 18 parallel MPI-processes    *
           *              working on a common directory               *
           ************************************************************
-------------------------------------------------------------------------------
                                 ORCA SCF
-------------------------------------------------------------------------------

------------
SCF SETTINGS
------------
Hamiltonian:
 Density Functional     Method          .... DFT(GTOs)
 Exchange Functional    Exchange        .... Slater
   X-Alpha parameter    XAlpha          ....  0.666667
 Correlation Functional Correlation     .... VWN-5
 Gradients option       PostSCFGGA      .... off
   Density functional embedding theory  .... OFF

Relativistic Settings:
 Scalar relativistic method             .... ZORA
 Speed of light used       Velit        ....       137.035989
Orbital energies will be scaled


General Settings:
 Integral files         IntName         .... Ne_cc-pcvtz_137.035989_
 Hartree-Fock type      HFTyp           .... RHF
 Total Charge           Charge          ....    8
 Multiplicity           Mult            ....    1
 Number of Electrons    NEL             ....    2
 Basis Dimension        Dim             ....   43
 Nuclear Repulsion      ENuc            ....      0.0000000000 Eh

Convergence Acceleration:
 DIIS                   CNVDIIS         .... on
   Start iteration      DIISMaxIt       ....    12
   Startup error        DIISStart       ....  0.200000
   # of expansion vecs  DIISMaxEq       ....     5
   Bias factor          DIISBfac        ....   1.050
   Max. coefficient     DIISMaxC        ....  10.000
 Newton-Raphson         CNVNR           .... off
 SOSCF                  CNVSOSCF        .... on
   Start iteration      SOSCFMaxIt      ....   150
   Startup grad/error   SOSCFStart      ....  0.003300
 Level Shifting         CNVShift        .... on
   Level shift para.    LevelShift      ....    0.2500
   Turn off err/grad.   ShiftErr        ....    0.0010
 Zerner damping         CNVZerner       .... off
 Static damping         CNVDamp         .... on
   Fraction old density DampFac         ....    0.7000
   Max. Damping (<1)    DampMax         ....    0.9800
   Min. Damping (>=0)   DampMin         ....    0.0000
   Turn off err/grad.   DampErr         ....    0.1000
 Fernandez-Rico         CNVRico         .... off

SCF Procedure:
 Maximum # iterations   MaxIter         ....   125
 SCF integral mode      SCFMode         .... Direct
   Integral package                     .... LIBINT
 Reset frequency        DirectResetFreq ....    20
 Integral Threshold     Thresh          ....  1.000e-12 Eh
 Primitive CutOff       TCut            ....  1.000e-14 Eh

Convergence Tolerance:
 Convergence Check Mode ConvCheckMode   .... Total+1el-Energy
 Convergence forced     ConvForced      .... 0
 Energy Change          TolE            ....  1.000e-09 Eh
 1-El. energy change                    ....  1.000e-06 Eh
 Orbital Gradient       TolG            ....  2.000e-06
 Orbital Rotation angle TolX            ....  2.000e-06
 DIIS Error             TolErr          ....  1.000e-08


Diagonalization of the overlap matrix:
Smallest eigenvalue                        ... 1.088e-02
Time for diagonalization                   ...    0.001 sec
Threshold for overlap eigenvalues          ... 1.000e-08
Number of eigenvalues below threshold      ... 0
Time for construction of square roots      ...    0.001 sec
Total time needed                          ...    0.002 sec

-------------------
DFT GRID GENERATION
-------------------

General Integration Accuracy     IntAcc      ...  5.010
Radial Grid Type                 RadialGrid  ... Gauss-Chebyshev
Angular Grid (max. acc.)         AngularGrid ... Lebedev-434
Angular grid pruning method      GridPruning ... 3 (G Style)
Weight generation scheme         WeightScheme... Becke
Basis function cutoff            BFCut       ...    1.0000e-12
Integration weight cutoff        WCut        ...    1.0000e-14
Grids for H and He will be reduced by one unit

# of grid points (after initial pruning)     ...  10818 (   0.0 sec)
# of grid points (after weights+screening)   ...  10818 (   0.0 sec)
Grid point division into batches done        ...    0.1 sec
Reduced shell lists constructed in    0.1 sec

Total number of grid points                  ...    10818
Total number of batches                      ...      170
Average number of points per batch           ...       63
Average number of grid points per atom       ...    10818
Average number of shells per batch           ...     0.00 ( 0.00%)
Average number of basis functions per batch  ...     0.00 ( 0.00%)
Average number of large shells per batch     ...     0.00 ( -nan%)
Average number of large basis fcns per batch ...     0.00 ( -nan%)
Maximum spatial batch extension              ...  16.29, 16.29, 16.29 au
Average spatial batch extension              ...   0.85,  0.86,  0.85 au

Time for grid setup =    0.123 sec

------------------------------
INITIAL GUESS: MODEL POTENTIAL
------------------------------
Loading ZORA relativistic densities                ... done
Calculating cut-offs                               ... done
Setting up the integral package                    ... done
Initializing the effective Hamiltonian             ... done
Starting the Coulomb interaction                   ... done (   0.0 sec)
Reading the grid                                   ... done
Mapping shells                                     ... done
Starting the XC term evaluation                    ... done (   0.0 sec)
  promolecular density results
     # of electrons  =     10.000000332
     EX              =    -11.053709298
     EC              =     -0.746638772
     EX+EC           =    -11.800348070
Transforming the Hamiltonian                       ... done (   0.0 sec)
Diagonalizing the Hamiltonian                      ... done (   0.0 sec)
Back transforming the eigenvectors                 ... done (   0.0 sec)
Now organizing SCF variables                       ... done
                      ------------------
                      INITIAL GUESS DONE (   0.2 sec)
                      ------------------
--------------
SCF ITERATIONS
--------------
ITER       Energy         Delta-E        Max-DP      RMS-DP      [F,P]     Damp
               ***  Starting incremental Fock matrix formation  ***
  0    -93.4426887774   0.000000000000 0.01349215  0.00039843  0.7904339 0.7000
  1    -93.4464088322  -0.003720054767 0.00918247  0.00027387  0.5468893 0.7000
  2    -93.4489575994  -0.002548767233 0.00619321  0.00018658  0.3772738 0.7000
                      *** Initiating the SOSCF procedure ***
                      *** Re-Reading the Fockian *** 
                      *** Removing any level shift *** 
ITER      Energy       Delta-E        Grad      Rot      Max-DP    RMS-DP
  3    -93.45071589  -0.0017582917  0.003054  0.003054  0.013916  0.000424
               *** Restarting incremental Fock matrix formation ***
  4    -93.45474042  -0.0040245300  0.006944  0.000110  0.001218  0.000031
  5    -93.45474329  -0.0000028722  0.000374  0.000006  0.000065  0.000002
                  ***Gradient check signals convergence***
              ***Rediagonalizing the Fockian in SOSCF/NRSCF***

               *****************************************************
               *                     SUCCESS                       *
               *           SCF CONVERGED AFTER   6 CYCLES          *
               *****************************************************

Setting up the final grid:

General Integration Accuracy     IntAcc      ...  5.340
Radial Grid Type                 RadialGrid  ... Gauss-Chebyshev
Angular Grid (max. acc.)         AngularGrid ... Lebedev-590
Angular grid pruning method      GridPruning ... 3 (G Style)
Weight generation scheme         WeightScheme... Becke
Basis function cutoff            BFCut       ...    1.0000e-12
Integration weight cutoff        WCut        ...    1.0000e-14
Grids for H and He will be reduced by one unit

# of grid points (after initial pruning)     ...  16840 (   0.0 sec)
# of grid points (after weights+screening)   ...  16840 (   0.0 sec)
Grid point division into batches done        ...    0.2 sec
Reduced shell lists constructed in    0.2 sec

Total number of grid points                  ...    16840
Total number of batches                      ...      264
Average number of points per batch           ...       63
Average number of grid points per atom       ...    16840
Average number of shells per batch           ...     0.00 ( 0.00%)
Average number of basis functions per batch  ...     0.00 ( 0.00%)
Average number of large shells per batch     ...     0.00 ( -nan%)
Average number of large basis fcns per batch ...     0.00 ( -nan%)
Maximum spatial batch extension              ...  16.63, 16.63, 16.63 au
Average spatial batch extension              ...   0.74,  0.74,  0.69 au

Final grid set up in    0.2 sec
Final integration                            ... done (   0.0 sec)
Change in XC energy                          ...     0.000005330
Integrated number of electrons               ...     2.000000019
Previous integrated no of electrons          ...     2.000000909

----------------
TOTAL SCF ENERGY
----------------

Total Energy       :          -93.45473797 Eh           -2543.03271 eV

Components:
Nuclear Repulsion  :            0.00000000 Eh               0.00000 eV
Electronic Energy  :          -93.45473797 Eh           -2543.03271 eV
One Electron Energy:         -100.11627378 Eh           -2724.30231 eV
Two Electron Energy:            6.66153581 Eh             181.26960 eV

Virial components:
Potential Energy   :         -186.97393448 Eh           -5087.81942 eV
Kinetic Energy     :           93.51919651 Eh            2544.78671 eV
Virial Ratio       :            1.99931075


DFT components:
N(Alpha)           :        1.000000009556 electrons
N(Beta)            :        1.000000009556 electrons
N(Total)           :        2.000000019112 electrons
E(X)               :       -5.163169480158 Eh       
E(C)               :       -0.202845724708 Eh       
E(XC)              :       -5.366015204866 Eh       
DFET-embed. en.    :        0.000000000000 Eh       

---------------
SCF CONVERGENCE
---------------

  Last Energy change         ...   -8.7511e-09  Tolerance :   1.0000e-09
  Last MAX-Density change    ...    3.3344e-09  Tolerance :   1.0000e-08
  Last RMS-Density change    ...    1.2890e-10  Tolerance :   1.0000e-09
  Last Orbital Gradient      ...    2.7523e-08  Tolerance :   2.0000e-06
  Last Orbital Rotation      ...    3.8037e-10  Tolerance :   2.0000e-06

             **** THE GBW FILE WAS UPDATED (Ne_cc-pcvtz_137.035989_.gbw) ****
             **** DENSITY FILE WAS UPDATED (Ne_cc-pcvtz_137.035989_.scfp) ****
             **** ENERGY FILE WAS UPDATED (Ne_cc-pcvtz_137.035989_.en.tmp) ****
             **** THE GBW FILE WAS UPDATED (Ne_cc-pcvtz_137.035989_.gbw) ****
             **** DENSITY FILE WAS UPDATED (Ne_cc-pcvtz_137.035989_.scfp) ****
----------------
ORBITAL ENERGIES
----------------

  NO   OCC          E(Eh)            E(eV) 
   0   2.0000     -41.583333     -1131.5400 
   1   0.0000      -9.065136      -246.6749 
   2   0.0000      -8.612475      -234.3574 
   3   0.0000      -8.612475      -234.3574 
   4   0.0000      -8.612475      -234.3574 
   5   0.0000      -3.837019      -104.4106 
   6   0.0000      -3.657406       -99.5231 
   7   0.0000      -3.657406       -99.5231 
   8   0.0000      -3.657406       -99.5231 
   9   0.0000      -3.490737       -94.9878 
  10   0.0000      -3.490737       -94.9878 
  11   0.0000      -3.490737       -94.9878 
  12   0.0000      -3.490737       -94.9878 
  13   0.0000      -3.490737       -94.9878 
  14   0.0000      -1.358710       -36.9724 
  15   0.0000      -1.358710       -36.9724 
  16   0.0000      -1.358710       -36.9724 
  17   0.0000      -0.066483        -1.8091 
  18   0.0000       2.058571        56.0166 
  19   0.0000       2.058571        56.0166 
  20   0.0000       2.058571        56.0166 
  21   0.0000       2.058571        56.0166 
  22   0.0000       2.058571        56.0166 
  23   0.0000       2.058571        56.0166 
  24   0.0000       2.058571        56.0166 
  25   0.0000       2.526514        68.7499 
  26   0.0000       2.526514        68.7499 
  27   0.0000       2.526514        68.7499 
  28   0.0000       2.526514        68.7499 
  29   0.0000       2.526514        68.7499 
  30   0.0000      26.766222       728.3459 
  31   0.0000      26.766222       728.3459 
  32   0.0000      26.766222       728.3459 
  33   0.0000      30.450523       828.6008 
  34   0.0000      52.065693      1416.7795 
  35   0.0000      52.065693      1416.7795 
  36   0.0000      52.065693      1416.7795 
  37   0.0000      52.065693      1416.7795 
  38   0.0000      52.065693      1416.7795 
  39   0.0000     191.614277      5214.0896 
  40   0.0000     191.614277      5214.0896 
  41   0.0000     191.614277      5214.0896 
  42   0.0000     206.906547      5630.2134 

                    ********************************
                    * MULLIKEN POPULATION ANALYSIS *
                    ********************************

-----------------------
MULLIKEN ATOMIC CHARGES
-----------------------
   0 Ne:    8.000000
Sum of atomic charges:    8.0000000

--------------------------------
MULLIKEN REDUCED ORBITAL CHARGES
--------------------------------
  0 Nes       :     2.000000  s :     2.000000
      pz      :     0.000000  p :     0.000000
      px      :     0.000000
      py      :     0.000000
      dz2     :     0.000000  d :     0.000000
      dxz     :     0.000000
      dyz     :     0.000000
      dx2y2   :     0.000000
      dxy     :     0.000000
      f0      :     0.000000  f :     0.000000
      f+1     :     0.000000
      f-1     :     0.000000
      f+2     :     0.000000
      f-2     :     0.000000
      f+3     :     0.000000
      f-3     :     0.000000


                     *******************************
                     * LOEWDIN POPULATION ANALYSIS *
                     *******************************

----------------------
LOEWDIN ATOMIC CHARGES
----------------------
   0 Ne:    8.000000

-------------------------------
LOEWDIN REDUCED ORBITAL CHARGES
-------------------------------
  0 Nes       :     2.000000  s :     2.000000
      pz      :     0.000000  p :     0.000000
      px      :     0.000000
      py      :     0.000000
      dz2     :     0.000000  d :     0.000000
      dxz     :     0.000000
      dyz     :     0.000000
      dx2y2   :     0.000000
      dxy     :     0.000000
      f0      :     0.000000  f :     0.000000
      f+1     :     0.000000
      f-1     :     0.000000
      f+2     :     0.000000
      f-2     :     0.000000
      f+3     :     0.000000
      f-3     :     0.000000


                      *****************************
                      * MAYER POPULATION ANALYSIS *
                      *****************************

  NA   - Mulliken gross atomic population
  ZA   - Total nuclear charge
  QA   - Mulliken gross atomic charge
  VA   - Mayer's total valence
  BVA  - Mayer's bonded valence
  FA   - Mayer's free valence

  ATOM       NA         ZA         QA         VA         BVA        FA
  0 Ne     2.0000    10.0000     8.0000    -0.0000     0.0000    -0.0000

  Mayer bond orders larger than 0.100000


--------------------------
ATOM BASIS FOR ELEMENT Ne
--------------------------
 NewGTO Ne
 S 20
    1      24350.000000000000         0.000509928097
    2       3650.000000000000         0.003942292721
    3        829.600000000000         0.020312813072
    4        234.000000000000         0.079656457243
    5         75.610000000000         0.233303278250
    6         26.730000000000         0.439555988309
    7          9.927000000000         0.356179697017
    8          1.102000000000        -0.007765737657
    9      24350.000000000000        -0.000000264689
   10       3650.000000000000        -0.000002052459
   11        829.600000000000        -0.000010625682
   12        234.000000000000        -0.000043142017
   13         75.610000000000        -0.000135415194
   14         26.730000000000        -0.000319663213
   15          9.927000000000        -0.000398625689
   16          1.102000000000         0.001358965690
   17          2.836000000000         0.033732801936
   18          0.378200000000         0.001279706922
   19         12.083000000000        -0.002676906152
   20         31.947000000000        -0.006946257025
 S 20
    1      24350.000000000000         0.000049820274
    2       3650.000000000000         0.000385164309
    3        829.600000000000         0.001984573739
    4        234.000000000000         0.007782482547
    5         75.610000000000         0.022793866987
    6         26.730000000000         0.042944877613
    7          9.927000000000         0.034798965100
    8          1.102000000000        -0.000758717119
    9      24350.000000000000         0.000121207250
   10       3650.000000000000         0.000939869776
   11        829.600000000000         0.004865752055
   12        234.000000000000         0.019755754545
   13         75.610000000000         0.062009834457
   14         26.730000000000         0.146381379331
   15          9.927000000000         0.182540172628
   16          1.102000000000        -0.622302673031
   17          2.836000000000        -0.566418367335
   18          0.378200000000         0.008084739997
   19         12.083000000000         0.037100168125
   20         31.947000000000         0.015383222056
 S 20
    1      24350.000000000000        -0.000029055979
    2       3650.000000000000        -0.000224633971
    3        829.600000000000        -0.001157435075
    4        234.000000000000        -0.004538868016
    5         75.610000000000        -0.013293746976
    6         26.730000000000        -0.025046137946
    7          9.927000000000        -0.020295311775
    8          1.102000000000         0.000442495932
    9      24350.000000000000         0.000116645726
   10       3650.000000000000         0.000904498638
   11        829.600000000000         0.004682633934
   12        234.000000000000         0.019012264818
   13         75.610000000000         0.059676151137
   14         26.730000000000         0.140872450202
   15          9.927000000000         0.175670440435
   16          1.102000000000        -0.598882881949
   17          2.836000000000        -0.611981432422
   18          0.378200000000         1.439836562805
   19         12.083000000000         0.010892507054
   20         31.947000000000        -0.003383581560
 S 20
    1      24350.000000000000         0.000941736795
    2       3650.000000000000         0.007280638448
    3        829.600000000000         0.037513766309
    4        234.000000000000         0.147109792791
    5         75.610000000000         0.430865219324
    6         26.730000000000         0.811773365247
    7          9.927000000000         0.657793771375
    8          1.102000000000        -0.014341788440
    9      24350.000000000000        -0.000712836976
   10       3650.000000000000        -0.005527507056
   11        829.600000000000        -0.028616175873
   12        234.000000000000        -0.116186386020
   13         75.610000000000        -0.364688604878
   14         26.730000000000        -0.860889590749
   15          9.927000000000        -1.073544567126
   16          1.102000000000         3.659850016146
   17          2.836000000000        -2.825510701676
   18          0.378200000000        -1.619800417332
   19         12.083000000000         0.923926869532
   20         31.947000000000         0.136014178073
 S 20
    1      24350.000000000000         0.000036689352
    2       3650.000000000000         0.000283648154
    3        829.600000000000         0.001461507893
    4        234.000000000000         0.005731285991
    5         75.610000000000         0.016786182270
    6         26.730000000000         0.031626074837
    7          9.927000000000         0.025627146605
    8          1.102000000000        -0.000558745204
    9      24350.000000000000        -0.000317193297
   10       3650.000000000000        -0.002459592088
   11        829.600000000000        -0.012733429206
   12        234.000000000000        -0.051699819276
   13         75.610000000000        -0.162276628184
   14         26.730000000000        -0.383072731522
   15          9.927000000000        -0.477698480919
   16          1.102000000000         1.628534898913
   17          2.836000000000        -2.370971884882
   18          0.378200000000        -0.496652557416
   19         12.083000000000         3.520112770315
   20         31.947000000000        -1.509611248913
 S 20
    1      24350.000000000000        -0.003599666420
    2       3650.000000000000        -0.027829293576
    3        829.600000000000        -0.143391492822
    4        234.000000000000        -0.562308050413
    5         75.610000000000        -1.646926264208
    6         26.730000000000        -3.102898112562
    7          9.927000000000        -2.514331140975
    8          1.102000000000         0.054819621074
    9      24350.000000000000         0.000161228219
   10       3650.000000000000         0.001250201867
   11        829.600000000000         0.006472356550
   12        234.000000000000         0.026278833337
   13         75.610000000000         0.082484630049
   14         26.730000000000         0.194714500142
   15          9.927000000000         0.242812430321
   16          1.102000000000        -0.827778467932
   17          2.836000000000         1.270755864210
   18          0.378200000000         0.230287262968
   19         12.083000000000         0.719215345540
   20         31.947000000000         5.540057081441
 P 7
    1         54.700000000000         0.032813345779
    2         12.430000000000         0.205967789239
    3          3.679000000000         0.615441075371
    4          1.143000000000         0.328158786335
    5          0.330000000000        -0.016911705479
    6         22.827000000000         0.003050565319
    7         87.017000000000        -0.000590027291
 P 7
    1         54.700000000000         0.023916256489
    2         12.430000000000         0.150121188768
    3          3.679000000000         0.448568905811
    4          1.143000000000        -0.345298734261
    5          0.330000000000        -0.791825792323
    6         22.827000000000        -0.014598405777
    7         87.017000000000        -0.001435869900
 P 7
    1         54.700000000000         0.038941613091
    2         12.430000000000         0.244434627656
    3          3.679000000000         0.730381729388
    4          1.143000000000        -1.602446553547
    5          0.330000000000         1.104176667894
    6         22.827000000000        -0.041345991422
    7         87.017000000000        -0.002922450397
 P 7
    1         54.700000000000        -0.046817149564
    2         12.430000000000        -0.293868990349
    3          3.679000000000        -0.878093842280
    4          1.143000000000         0.613033116940
    5          0.330000000000        -0.214907537621
    6         22.827000000000         1.347472320465
    7         87.017000000000        -0.010550217647
 P 7
    1         54.700000000000         0.016997129997
    2         12.430000000000         0.106690165410
    3          3.679000000000         0.318795042536
    4          1.143000000000        -0.199198517781
    5          0.330000000000         0.068229716635
    6         22.827000000000        -0.964787972240
    7         87.017000000000         1.278884796957
 D 3
    1          4.014000000000         0.187245041320
    2          1.096000000000         0.891832137206
    3         23.168000000000         0.010524597517
 D 3
    1          4.014000000000         1.130738563898
    2          1.096000000000        -0.733459208479
    3         23.168000000000         0.023427160714
 D 3
    1          4.014000000000        -0.419212090075
    2          1.096000000000         0.155177924897
    3         23.168000000000         1.056823393011
 F 1
    1          2.544000000000         1.000000000000
 end
  // -----------------------------------------------
  // The basis set
  // -----------------------------------------------
  BAS[ATNO] = new BFNGauss[NSH];
  // Basis function   1 L = s
  InitBFNGauss(BAS[ATNO][  0]);
  BAS[ATNO][  0].l  = 0;
  BAS[ATNO][  0].ng = 20;
  BAS[ATNO][  0].a[  0] =     24350.000000000000;     BAS[ATNO][  0].d[  0] =         0.000509928097;
  BAS[ATNO][  0].a[  1] =      3650.000000000000;     BAS[ATNO][  0].d[  1] =         0.003942292721;
  BAS[ATNO][  0].a[  2] =       829.600000000000;     BAS[ATNO][  0].d[  2] =         0.020312813072;
  BAS[ATNO][  0].a[  3] =       234.000000000000;     BAS[ATNO][  0].d[  3] =         0.079656457243;
  BAS[ATNO][  0].a[  4] =        75.610000000000;     BAS[ATNO][  0].d[  4] =         0.233303278250;
  BAS[ATNO][  0].a[  5] =        26.730000000000;     BAS[ATNO][  0].d[  5] =         0.439555988309;
  BAS[ATNO][  0].a[  6] =         9.927000000000;     BAS[ATNO][  0].d[  6] =         0.356179697017;
  BAS[ATNO][  0].a[  7] =         1.102000000000;     BAS[ATNO][  0].d[  7] =        -0.007765737657;
  BAS[ATNO][  0].a[  8] =     24350.000000000000;     BAS[ATNO][  0].d[  8] =        -0.000000264689;
  BAS[ATNO][  0].a[  9] =      3650.000000000000;     BAS[ATNO][  0].d[  9] =        -0.000002052459;
  BAS[ATNO][  0].a[ 10] =       829.600000000000;     BAS[ATNO][  0].d[ 10] =        -0.000010625682;
  BAS[ATNO][  0].a[ 11] =       234.000000000000;     BAS[ATNO][  0].d[ 11] =        -0.000043142017;
  BAS[ATNO][  0].a[ 12] =        75.610000000000;     BAS[ATNO][  0].d[ 12] =        -0.000135415194;
  BAS[ATNO][  0].a[ 13] =        26.730000000000;     BAS[ATNO][  0].d[ 13] =        -0.000319663213;
  BAS[ATNO][  0].a[ 14] =         9.927000000000;     BAS[ATNO][  0].d[ 14] =        -0.000398625689;
  BAS[ATNO][  0].a[ 15] =         1.102000000000;     BAS[ATNO][  0].d[ 15] =         0.001358965690;
  BAS[ATNO][  0].a[ 16] =         2.836000000000;     BAS[ATNO][  0].d[ 16] =         0.033732801936;
  BAS[ATNO][  0].a[ 17] =         0.378200000000;     BAS[ATNO][  0].d[ 17] =         0.001279706922;
  BAS[ATNO][  0].a[ 18] =        12.083000000000;     BAS[ATNO][  0].d[ 18] =        -0.002676906152;
  BAS[ATNO][  0].a[ 19] =        31.947000000000;     BAS[ATNO][  0].d[ 19] =        -0.006946257025;

  // Basis function   2 L = s
  InitBFNGauss(BAS[ATNO][  1]);
  BAS[ATNO][  1].l  = 0;
  BAS[ATNO][  1].ng = 20;
  BAS[ATNO][  1].a[  0] =     24350.000000000000;     BAS[ATNO][  1].d[  0] =        -0.000049820274;
  BAS[ATNO][  1].a[  1] =      3650.000000000000;     BAS[ATNO][  1].d[  1] =        -0.000385164309;
  BAS[ATNO][  1].a[  2] =       829.600000000000;     BAS[ATNO][  1].d[  2] =        -0.001984573739;
  BAS[ATNO][  1].a[  3] =       234.000000000000;     BAS[ATNO][  1].d[  3] =        -0.007782482547;
  BAS[ATNO][  1].a[  4] =        75.610000000000;     BAS[ATNO][  1].d[  4] =        -0.022793866987;
  BAS[ATNO][  1].a[  5] =        26.730000000000;     BAS[ATNO][  1].d[  5] =        -0.042944877613;
  BAS[ATNO][  1].a[  6] =         9.927000000000;     BAS[ATNO][  1].d[  6] =        -0.034798965100;
  BAS[ATNO][  1].a[  7] =         1.102000000000;     BAS[ATNO][  1].d[  7] =         0.000758717119;
  BAS[ATNO][  1].a[  8] =     24350.000000000000;     BAS[ATNO][  1].d[  8] =        -0.000121207250;
  BAS[ATNO][  1].a[  9] =      3650.000000000000;     BAS[ATNO][  1].d[  9] =        -0.000939869776;
  BAS[ATNO][  1].a[ 10] =       829.600000000000;     BAS[ATNO][  1].d[ 10] =        -0.004865752055;
  BAS[ATNO][  1].a[ 11] =       234.000000000000;     BAS[ATNO][  1].d[ 11] =        -0.019755754545;
  BAS[ATNO][  1].a[ 12] =        75.610000000000;     BAS[ATNO][  1].d[ 12] =        -0.062009834457;
  BAS[ATNO][  1].a[ 13] =        26.730000000000;     BAS[ATNO][  1].d[ 13] =        -0.146381379331;
  BAS[ATNO][  1].a[ 14] =         9.927000000000;     BAS[ATNO][  1].d[ 14] =        -0.182540172628;
  BAS[ATNO][  1].a[ 15] =         1.102000000000;     BAS[ATNO][  1].d[ 15] =         0.622302673031;
  BAS[ATNO][  1].a[ 16] =         2.836000000000;     BAS[ATNO][  1].d[ 16] =         0.566418367335;
  BAS[ATNO][  1].a[ 17] =         0.378200000000;     BAS[ATNO][  1].d[ 17] =        -0.008084739997;
  BAS[ATNO][  1].a[ 18] =        12.083000000000;     BAS[ATNO][  1].d[ 18] =        -0.037100168125;
  BAS[ATNO][  1].a[ 19] =        31.947000000000;     BAS[ATNO][  1].d[ 19] =        -0.015383222056;

  // Basis function   3 L = s
  InitBFNGauss(BAS[ATNO][  2]);
  BAS[ATNO][  2].l  = 0;
  BAS[ATNO][  2].ng = 20;
  BAS[ATNO][  2].a[  0] =     24350.000000000000;     BAS[ATNO][  2].d[  0] =        -0.000029055979;
  BAS[ATNO][  2].a[  1] =      3650.000000000000;     BAS[ATNO][  2].d[  1] =        -0.000224633971;
  BAS[ATNO][  2].a[  2] =       829.600000000000;     BAS[ATNO][  2].d[  2] =        -0.001157435075;
  BAS[ATNO][  2].a[  3] =       234.000000000000;     BAS[ATNO][  2].d[  3] =        -0.004538868016;
  BAS[ATNO][  2].a[  4] =        75.610000000000;     BAS[ATNO][  2].d[  4] =        -0.013293746976;
  BAS[ATNO][  2].a[  5] =        26.730000000000;     BAS[ATNO][  2].d[  5] =        -0.025046137946;
  BAS[ATNO][  2].a[  6] =         9.927000000000;     BAS[ATNO][  2].d[  6] =        -0.020295311775;
  BAS[ATNO][  2].a[  7] =         1.102000000000;     BAS[ATNO][  2].d[  7] =         0.000442495932;
  BAS[ATNO][  2].a[  8] =     24350.000000000000;     BAS[ATNO][  2].d[  8] =         0.000116645726;
  BAS[ATNO][  2].a[  9] =      3650.000000000000;     BAS[ATNO][  2].d[  9] =         0.000904498638;
  BAS[ATNO][  2].a[ 10] =       829.600000000000;     BAS[ATNO][  2].d[ 10] =         0.004682633934;
  BAS[ATNO][  2].a[ 11] =       234.000000000000;     BAS[ATNO][  2].d[ 11] =         0.019012264818;
  BAS[ATNO][  2].a[ 12] =        75.610000000000;     BAS[ATNO][  2].d[ 12] =         0.059676151137;
  BAS[ATNO][  2].a[ 13] =        26.730000000000;     BAS[ATNO][  2].d[ 13] =         0.140872450202;
  BAS[ATNO][  2].a[ 14] =         9.927000000000;     BAS[ATNO][  2].d[ 14] =         0.175670440435;
  BAS[ATNO][  2].a[ 15] =         1.102000000000;     BAS[ATNO][  2].d[ 15] =        -0.598882881949;
  BAS[ATNO][  2].a[ 16] =         2.836000000000;     BAS[ATNO][  2].d[ 16] =        -0.611981432422;
  BAS[ATNO][  2].a[ 17] =         0.378200000000;     BAS[ATNO][  2].d[ 17] =         1.439836562805;
  BAS[ATNO][  2].a[ 18] =        12.083000000000;     BAS[ATNO][  2].d[ 18] =         0.010892507054;
  BAS[ATNO][  2].a[ 19] =        31.947000000000;     BAS[ATNO][  2].d[ 19] =        -0.003383581560;

  // Basis function   4 L = s
  InitBFNGauss(BAS[ATNO][  3]);
  BAS[ATNO][  3].l  = 0;
  BAS[ATNO][  3].ng = 20;
  BAS[ATNO][  3].a[  0] =     24350.000000000000;     BAS[ATNO][  3].d[  0] =         0.000941736795;
  BAS[ATNO][  3].a[  1] =      3650.000000000000;     BAS[ATNO][  3].d[  1] =         0.007280638448;
  BAS[ATNO][  3].a[  2] =       829.600000000000;     BAS[ATNO][  3].d[  2] =         0.037513766309;
  BAS[ATNO][  3].a[  3] =       234.000000000000;     BAS[ATNO][  3].d[  3] =         0.147109792791;
  BAS[ATNO][  3].a[  4] =        75.610000000000;     BAS[ATNO][  3].d[  4] =         0.430865219324;
  BAS[ATNO][  3].a[  5] =        26.730000000000;     BAS[ATNO][  3].d[  5] =         0.811773365247;
  BAS[ATNO][  3].a[  6] =         9.927000000000;     BAS[ATNO][  3].d[  6] =         0.657793771375;
  BAS[ATNO][  3].a[  7] =         1.102000000000;     BAS[ATNO][  3].d[  7] =        -0.014341788440;
  BAS[ATNO][  3].a[  8] =     24350.000000000000;     BAS[ATNO][  3].d[  8] =        -0.000712836976;
  BAS[ATNO][  3].a[  9] =      3650.000000000000;     BAS[ATNO][  3].d[  9] =        -0.005527507056;
  BAS[ATNO][  3].a[ 10] =       829.600000000000;     BAS[ATNO][  3].d[ 10] =        -0.028616175873;
  BAS[ATNO][  3].a[ 11] =       234.000000000000;     BAS[ATNO][  3].d[ 11] =        -0.116186386020;
  BAS[ATNO][  3].a[ 12] =        75.610000000000;     BAS[ATNO][  3].d[ 12] =        -0.364688604878;
  BAS[ATNO][  3].a[ 13] =        26.730000000000;     BAS[ATNO][  3].d[ 13] =        -0.860889590749;
  BAS[ATNO][  3].a[ 14] =         9.927000000000;     BAS[ATNO][  3].d[ 14] =        -1.073544567126;
  BAS[ATNO][  3].a[ 15] =         1.102000000000;     BAS[ATNO][  3].d[ 15] =         3.659850016146;
  BAS[ATNO][  3].a[ 16] =         2.836000000000;     BAS[ATNO][  3].d[ 16] =        -2.825510701676;
  BAS[ATNO][  3].a[ 17] =         0.378200000000;     BAS[ATNO][  3].d[ 17] =        -1.619800417332;
  BAS[ATNO][  3].a[ 18] =        12.083000000000;     BAS[ATNO][  3].d[ 18] =         0.923926869532;
  BAS[ATNO][  3].a[ 19] =        31.947000000000;     BAS[ATNO][  3].d[ 19] =         0.136014178073;

  // Basis function   5 L = s
  InitBFNGauss(BAS[ATNO][  4]);
  BAS[ATNO][  4].l  = 0;
  BAS[ATNO][  4].ng = 20;
  BAS[ATNO][  4].a[  0] =     24350.000000000000;     BAS[ATNO][  4].d[  0] =         0.000036689352;
  BAS[ATNO][  4].a[  1] =      3650.000000000000;     BAS[ATNO][  4].d[  1] =         0.000283648154;
  BAS[ATNO][  4].a[  2] =       829.600000000000;     BAS[ATNO][  4].d[  2] =         0.001461507893;
  BAS[ATNO][  4].a[  3] =       234.000000000000;     BAS[ATNO][  4].d[  3] =         0.005731285991;
  BAS[ATNO][  4].a[  4] =        75.610000000000;     BAS[ATNO][  4].d[  4] =         0.016786182270;
  BAS[ATNO][  4].a[  5] =        26.730000000000;     BAS[ATNO][  4].d[  5] =         0.031626074837;
  BAS[ATNO][  4].a[  6] =         9.927000000000;     BAS[ATNO][  4].d[  6] =         0.025627146605;
  BAS[ATNO][  4].a[  7] =         1.102000000000;     BAS[ATNO][  4].d[  7] =        -0.000558745204;
  BAS[ATNO][  4].a[  8] =     24350.000000000000;     BAS[ATNO][  4].d[  8] =        -0.000317193297;
  BAS[ATNO][  4].a[  9] =      3650.000000000000;     BAS[ATNO][  4].d[  9] =        -0.002459592088;
  BAS[ATNO][  4].a[ 10] =       829.600000000000;     BAS[ATNO][  4].d[ 10] =        -0.012733429206;
  BAS[ATNO][  4].a[ 11] =       234.000000000000;     BAS[ATNO][  4].d[ 11] =        -0.051699819276;
  BAS[ATNO][  4].a[ 12] =        75.610000000000;     BAS[ATNO][  4].d[ 12] =        -0.162276628184;
  BAS[ATNO][  4].a[ 13] =        26.730000000000;     BAS[ATNO][  4].d[ 13] =        -0.383072731522;
  BAS[ATNO][  4].a[ 14] =         9.927000000000;     BAS[ATNO][  4].d[ 14] =        -0.477698480919;
  BAS[ATNO][  4].a[ 15] =         1.102000000000;     BAS[ATNO][  4].d[ 15] =         1.628534898913;
  BAS[ATNO][  4].a[ 16] =         2.836000000000;     BAS[ATNO][  4].d[ 16] =        -2.370971884882;
  BAS[ATNO][  4].a[ 17] =         0.378200000000;     BAS[ATNO][  4].d[ 17] =        -0.496652557416;
  BAS[ATNO][  4].a[ 18] =        12.083000000000;     BAS[ATNO][  4].d[ 18] =         3.520112770315;
  BAS[ATNO][  4].a[ 19] =        31.947000000000;     BAS[ATNO][  4].d[ 19] =        -1.509611248913;

  // Basis function   6 L = s
  InitBFNGauss(BAS[ATNO][  5]);
  BAS[ATNO][  5].l  = 0;
  BAS[ATNO][  5].ng = 20;
  BAS[ATNO][  5].a[  0] =     24350.000000000000;     BAS[ATNO][  5].d[  0] =        -0.003599666420;
  BAS[ATNO][  5].a[  1] =      3650.000000000000;     BAS[ATNO][  5].d[  1] =        -0.027829293576;
  BAS[ATNO][  5].a[  2] =       829.600000000000;     BAS[ATNO][  5].d[  2] =        -0.143391492822;
  BAS[ATNO][  5].a[  3] =       234.000000000000;     BAS[ATNO][  5].d[  3] =        -0.562308050413;
  BAS[ATNO][  5].a[  4] =        75.610000000000;     BAS[ATNO][  5].d[  4] =        -1.646926264208;
  BAS[ATNO][  5].a[  5] =        26.730000000000;     BAS[ATNO][  5].d[  5] =        -3.102898112562;
  BAS[ATNO][  5].a[  6] =         9.927000000000;     BAS[ATNO][  5].d[  6] =        -2.514331140975;
  BAS[ATNO][  5].a[  7] =         1.102000000000;     BAS[ATNO][  5].d[  7] =         0.054819621074;
  BAS[ATNO][  5].a[  8] =     24350.000000000000;     BAS[ATNO][  5].d[  8] =         0.000161228219;
  BAS[ATNO][  5].a[  9] =      3650.000000000000;     BAS[ATNO][  5].d[  9] =         0.001250201867;
  BAS[ATNO][  5].a[ 10] =       829.600000000000;     BAS[ATNO][  5].d[ 10] =         0.006472356550;
  BAS[ATNO][  5].a[ 11] =       234.000000000000;     BAS[ATNO][  5].d[ 11] =         0.026278833337;
  BAS[ATNO][  5].a[ 12] =        75.610000000000;     BAS[ATNO][  5].d[ 12] =         0.082484630049;
  BAS[ATNO][  5].a[ 13] =        26.730000000000;     BAS[ATNO][  5].d[ 13] =         0.194714500142;
  BAS[ATNO][  5].a[ 14] =         9.927000000000;     BAS[ATNO][  5].d[ 14] =         0.242812430321;
  BAS[ATNO][  5].a[ 15] =         1.102000000000;     BAS[ATNO][  5].d[ 15] =        -0.827778467932;
  BAS[ATNO][  5].a[ 16] =         2.836000000000;     BAS[ATNO][  5].d[ 16] =         1.270755864210;
  BAS[ATNO][  5].a[ 17] =         0.378200000000;     BAS[ATNO][  5].d[ 17] =         0.230287262968;
  BAS[ATNO][  5].a[ 18] =        12.083000000000;     BAS[ATNO][  5].d[ 18] =         0.719215345540;
  BAS[ATNO][  5].a[ 19] =        31.947000000000;     BAS[ATNO][  5].d[ 19] =         5.540057081441;

  // Basis function   7 L = p
  InitBFNGauss(BAS[ATNO][  6]);
  BAS[ATNO][  6].l  = 1;
  BAS[ATNO][  6].ng = 7;
  BAS[ATNO][  6].a[  0] =        54.700000000000;     BAS[ATNO][  6].d[  0] =         0.032813345779;
  BAS[ATNO][  6].a[  1] =        12.430000000000;     BAS[ATNO][  6].d[  1] =         0.205967789239;
  BAS[ATNO][  6].a[  2] =         3.679000000000;     BAS[ATNO][  6].d[  2] =         0.615441075371;
  BAS[ATNO][  6].a[  3] =         1.143000000000;     BAS[ATNO][  6].d[  3] =         0.328158786335;
  BAS[ATNO][  6].a[  4] =         0.330000000000;     BAS[ATNO][  6].d[  4] =        -0.016911705479;
  BAS[ATNO][  6].a[  5] =        22.827000000000;     BAS[ATNO][  6].d[  5] =         0.003050565319;
  BAS[ATNO][  6].a[  6] =        87.017000000000;     BAS[ATNO][  6].d[  6] =        -0.000590027291;

  // Basis function   8 L = p
  InitBFNGauss(BAS[ATNO][  7]);
  BAS[ATNO][  7].l  = 1;
  BAS[ATNO][  7].ng = 7;
  BAS[ATNO][  7].a[  0] =        54.700000000000;     BAS[ATNO][  7].d[  0] =        -0.023916256489;
  BAS[ATNO][  7].a[  1] =        12.430000000000;     BAS[ATNO][  7].d[  1] =        -0.150121188768;
  BAS[ATNO][  7].a[  2] =         3.679000000000;     BAS[ATNO][  7].d[  2] =        -0.448568905811;
  BAS[ATNO][  7].a[  3] =         1.143000000000;     BAS[ATNO][  7].d[  3] =         0.345298734261;
  BAS[ATNO][  7].a[  4] =         0.330000000000;     BAS[ATNO][  7].d[  4] =         0.791825792323;
  BAS[ATNO][  7].a[  5] =        22.827000000000;     BAS[ATNO][  7].d[  5] =         0.014598405777;
  BAS[ATNO][  7].a[  6] =        87.017000000000;     BAS[ATNO][  7].d[  6] =         0.001435869900;

  // Basis function   9 L = p
  InitBFNGauss(BAS[ATNO][  8]);
  BAS[ATNO][  8].l  = 1;
  BAS[ATNO][  8].ng = 7;
  BAS[ATNO][  8].a[  0] =        54.700000000000;     BAS[ATNO][  8].d[  0] =        -0.038941613091;
  BAS[ATNO][  8].a[  1] =        12.430000000000;     BAS[ATNO][  8].d[  1] =        -0.244434627656;
  BAS[ATNO][  8].a[  2] =         3.679000000000;     BAS[ATNO][  8].d[  2] =        -0.730381729388;
  BAS[ATNO][  8].a[  3] =         1.143000000000;     BAS[ATNO][  8].d[  3] =         1.602446553547;
  BAS[ATNO][  8].a[  4] =         0.330000000000;     BAS[ATNO][  8].d[  4] =        -1.104176667894;
  BAS[ATNO][  8].a[  5] =        22.827000000000;     BAS[ATNO][  8].d[  5] =         0.041345991422;
  BAS[ATNO][  8].a[  6] =        87.017000000000;     BAS[ATNO][  8].d[  6] =         0.002922450397;

  // Basis function  10 L = p
  InitBFNGauss(BAS[ATNO][  9]);
  BAS[ATNO][  9].l  = 1;
  BAS[ATNO][  9].ng = 7;
  BAS[ATNO][  9].a[  0] =        54.700000000000;     BAS[ATNO][  9].d[  0] =        -0.046817149564;
  BAS[ATNO][  9].a[  1] =        12.430000000000;     BAS[ATNO][  9].d[  1] =        -0.293868990349;
  BAS[ATNO][  9].a[  2] =         3.679000000000;     BAS[ATNO][  9].d[  2] =        -0.878093842280;
  BAS[ATNO][  9].a[  3] =         1.143000000000;     BAS[ATNO][  9].d[  3] =         0.613033116940;
  BAS[ATNO][  9].a[  4] =         0.330000000000;     BAS[ATNO][  9].d[  4] =        -0.214907537621;
  BAS[ATNO][  9].a[  5] =        22.827000000000;     BAS[ATNO][  9].d[  5] =         1.347472320465;
  BAS[ATNO][  9].a[  6] =        87.017000000000;     BAS[ATNO][  9].d[  6] =        -0.010550217647;

  // Basis function  11 L = p
  InitBFNGauss(BAS[ATNO][ 10]);
  BAS[ATNO][ 10].l  = 1;
  BAS[ATNO][ 10].ng = 7;
  BAS[ATNO][ 10].a[  0] =        54.700000000000;     BAS[ATNO][ 10].d[  0] =         0.016997129997;
  BAS[ATNO][ 10].a[  1] =        12.430000000000;     BAS[ATNO][ 10].d[  1] =         0.106690165410;
  BAS[ATNO][ 10].a[  2] =         3.679000000000;     BAS[ATNO][ 10].d[  2] =         0.318795042536;
  BAS[ATNO][ 10].a[  3] =         1.143000000000;     BAS[ATNO][ 10].d[  3] =        -0.199198517781;
  BAS[ATNO][ 10].a[  4] =         0.330000000000;     BAS[ATNO][ 10].d[  4] =         0.068229716635;
  BAS[ATNO][ 10].a[  5] =        22.827000000000;     BAS[ATNO][ 10].d[  5] =        -0.964787972240;
  BAS[ATNO][ 10].a[  6] =        87.017000000000;     BAS[ATNO][ 10].d[  6] =         1.278884796957;

  // Basis function  12 L = d
  InitBFNGauss(BAS[ATNO][ 11]);
  BAS[ATNO][ 11].l  = 2;
  BAS[ATNO][ 11].ng = 3;
  BAS[ATNO][ 11].a[  0] =         4.014000000000;     BAS[ATNO][ 11].d[  0] =         0.187245041320;
  BAS[ATNO][ 11].a[  1] =         1.096000000000;     BAS[ATNO][ 11].d[  1] =         0.891832137206;
  BAS[ATNO][ 11].a[  2] =        23.168000000000;     BAS[ATNO][ 11].d[  2] =         0.010524597517;

  // Basis function  13 L = d
  InitBFNGauss(BAS[ATNO][ 12]);
  BAS[ATNO][ 12].l  = 2;
  BAS[ATNO][ 12].ng = 3;
  BAS[ATNO][ 12].a[  0] =         4.014000000000;     BAS[ATNO][ 12].d[  0] =         1.130738563898;
  BAS[ATNO][ 12].a[  1] =         1.096000000000;     BAS[ATNO][ 12].d[  1] =        -0.733459208479;
  BAS[ATNO][ 12].a[  2] =        23.168000000000;     BAS[ATNO][ 12].d[  2] =         0.023427160714;

  // Basis function  14 L = d
  InitBFNGauss(BAS[ATNO][ 13]);
  BAS[ATNO][ 13].l  = 2;
  BAS[ATNO][ 13].ng = 3;
  BAS[ATNO][ 13].a[  0] =         4.014000000000;     BAS[ATNO][ 13].d[  0] =        -0.419212090075;
  BAS[ATNO][ 13].a[  1] =         1.096000000000;     BAS[ATNO][ 13].d[  1] =         0.155177924897;
  BAS[ATNO][ 13].a[  2] =        23.168000000000;     BAS[ATNO][ 13].d[  2] =         1.056823393011;

  // Basis function  15 L = f
  InitBFNGauss(BAS[ATNO][ 14]);
  BAS[ATNO][ 14].l  = 3;
  BAS[ATNO][ 14].ng = 1;
  BAS[ATNO][ 14].a[  0] =         2.544000000000;     BAS[ATNO][ 14].d[  0] =         1.000000000000;

-------
TIMINGS
-------

Total SCF time: 0 days 0 hours 0 min 1 sec 

Total time                  ....       1.473 sec
Sum of individual times     ....       1.300 sec  ( 88.2%)

Fock matrix formation       ....       0.840 sec  ( 57.0%)
  XC integration            ....       0.017 sec  (  2.0% of F)
    Basis function eval.    ....       0.003 sec  ( 15.5% of XC)
    Density eval.           ....       0.001 sec  (  5.6% of XC)
    XC-Functional eval.     ....       0.001 sec  (  8.0% of XC)
    XC-Potential eval.      ....       0.001 sec  (  5.7% of XC)
Diagonalization             ....       0.001 sec  (  0.1%)
Density matrix formation    ....       0.001 sec  (  0.0%)
Population analysis         ....       0.001 sec  (  0.0%)
Initial guess               ....       0.094 sec  (  6.4%)
Orbital Transformation      ....       0.000 sec  (  0.0%)
Orbital Orthonormalization  ....       0.000 sec  (  0.0%)
DIIS solution               ....       0.000 sec  (  0.0%)
SOSCF solution              ....       0.001 sec  (  0.0%)
Grid generation             ....       0.363 sec  ( 24.6%)

-------------------------   --------------------
FINAL SINGLE POINT ENERGY       -93.454737971782
-------------------------   --------------------


                            ***************************************
                            *     ORCA property calculations      *
                            ***************************************

                                    ---------------------
                                    Active property flags
                                    ---------------------
   (+) Dipole Moment


------------------------------------------------------------------------------
                       ORCA ELECTRIC PROPERTIES CALCULATION
------------------------------------------------------------------------------

Dipole Moment Calculation                       ... on
Quadrupole Moment Calculation                   ... off
Polarizability Calculation                      ... off
GBWName                                         ... Ne_cc-pcvtz_137.035989_.gbw
Electron density file                           ... Ne_cc-pcvtz_137.035989_.scfp
The origin for moment calculation is the CENTER OF MASS  = ( 0.000000,  0.000000  0.000000)

-------------
DIPOLE MOMENT
-------------
                                X             Y             Z
Electronic contribution:     -0.00000      -0.00000      -0.00000
Nuclear contribution   :      0.00000       0.00000       0.00000
                        -----------------------------------------
Total Dipole Moment    :     -0.00000      -0.00000      -0.00000
                        -----------------------------------------
Magnitude (a.u.)       :      0.00000
Magnitude (Debye)      :      0.00000



--------------------
Rotational spectrum 
--------------------
 
Rotational constants in cm-1:     0.000000     0.000000     0.000000 
Rotational constants in MHz :     0.000000     0.000000     0.000000 

 Dipole components along the rotational axes: 
x,y,z [a.u.] :    -0.000000    -0.000000    -0.000000 
x,y,z [Debye]:    -0.000000    -0.000000    -0.000000 

 

Timings for individual modules:

Sum of individual times         ...        2.570 sec (=   0.043 min)
GTO integral calculation        ...        0.490 sec (=   0.008 min)  19.1 %
Relativistic integrals          ...        0.341 sec (=   0.006 min)  13.3 %
SCF iterations                  ...        1.739 sec (=   0.029 min)  67.7 %
                             ****ORCA TERMINATED NORMALLY****
TOTAL RUN TIME: 0 days 0 hours 0 minutes 2 seconds 879 msec
