
                                 *****************
                                 * O   R   C   A *
                                 *****************

           --- An Ab Initio, DFT and Semiempirical electronic structure package ---

                  #######################################################
                  #                        -***-                        #
                  #          Department of theory and spectroscopy      #
                  #               Directorship: Frank Neese             #
                  #        Max Planck Institute fuer Kohlenforschung    #
                  #                Kaiser Wilhelm Platz 1               #
                  #                 D-45470 Muelheim/Ruhr               #
                  #                      Germany                        #
                  #                                                     #
                  #                  All rights reserved                #
                  #                        -***-                        #
                  #######################################################


                         Program Version 4.2.1 -  RELEASE  -


 With contributions from (in alphabetic order):
   Daniel Aravena         : Magnetic Suceptibility
   Michael Atanasov       : Ab Initio Ligand Field Theory (pilot matlab implementation)
   Alexander A. Auer      : GIAO ZORA, VPT2
   Ute Becker             : Parallelization
   Giovanni Bistoni       : ED, misc. LED, open-shell LED, HFLD
   Martin Brehm           : Molecular dynamics
   Dmytro Bykov           : SCF Hessian
   Vijay G. Chilkuri      : MRCI spin determinant printing, contributions to CSF-ICE
   Dipayan Datta          : RHF DLPNO-CCSD density
   Achintya Kumar Dutta   : EOM-CC, STEOM-CC
   Dmitry Ganyushin       : Spin-Orbit,Spin-Spin,Magnetic field MRCI
   Miquel Garcia          : C-PCM Hessian, Gaussian charge scheme
   Yang Guo               : DLPNO-NEVPT2, CIM, IAO-localization
   Andreas Hansen         : Spin unrestricted coupled pair/coupled cluster methods
   Benjamin Helmich-Paris : CASSCF linear response (MC-RPA)
   Lee Huntington         : MR-EOM, pCC
   Robert Izsak           : Overlap fitted RIJCOSX, COSX-SCS-MP3, EOM
   Christian Kollmar      : KDIIS, OOCD, Brueckner-CCSD(T), CCSD density
   Simone Kossmann        : Meta GGA functionals, TD-DFT gradient, OOMP2, MP2 Hessian
   Martin Krupicka        : AUTO-CI
   Lucas Lang             : DCDCAS
   Dagmar Lenk            : GEPOL surface, SMD
   Dimitrios Liakos       : Extrapolation schemes; Compound Job, initial MDCI parallelization
   Dimitrios Manganas     : Further ROCIS development; embedding schemes
   Dimitrios Pantazis     : SARC Basis sets
   Taras Petrenko         : DFT Hessian,TD-DFT gradient, ASA, ECA, R-Raman, ABS, FL, XAS/XES, NRVS
   Peter Pinski           : DLPNO-MP2, DLPNO-MP2 Gradient
   Christoph Reimann      : Effective Core Potentials
   Marius Retegan         : Local ZFS, SOC
   Christoph Riplinger    : Optimizer, TS searches, QM/MM, DLPNO-CCSD(T), (RO)-DLPNO pert. Triples
   Tobias Risthaus        : Range-separated hybrids, TD-DFT gradient, RPA, STAB
   Michael Roemelt        : Original ROCIS implementation
   Masaaki Saitow         : Open-shell DLPNO-CCSD energy and density
   Barbara Sandhoefer     : DKH picture change effects
   Avijit Sen             : IP-ROCIS
   Kantharuban Sivalingam : CASSCF convergence, NEVPT2, FIC-MRCI
   Bernardo de Souza      : ESD, SOC TD-DFT
   Georgi Stoychev        : AutoAux, RI-MP2 NMR
   Willem Van den Heuvel  : Paramagnetic NMR
   Boris Wezisla          : Elementary symmetry handling
   Frank Wennmohs         : Technical directorship


 We gratefully acknowledge several colleagues who have allowed us to
 interface, adapt or use parts of their codes:
   Stefan Grimme, W. Hujo, H. Kruse,             : VdW corrections, initial TS optimization,
                  C. Bannwarth                     DFT functionals, gCP, sTDA/sTD-DF
   Ed Valeev, F. Pavosevic, A. Kumar             : LibInt (2-el integral package), F12 methods
   Garnet Chan, S. Sharma, J. Yang, R. Olivares  : DMRG
   Ulf Ekstrom                                   : XCFun DFT Library
   Mihaly Kallay                                 : mrcc  (arbitrary order and MRCC methods)
   Andreas Klamt, Michael Diedenhofen            : otool_cosmo (COSMO solvation model)
   Jiri Pittner, Ondrej Demel                    : Mk-CCSD
   Frank Weinhold                                : gennbo (NPA and NBO analysis)
   Christopher J. Cramer and Donald G. Truhlar   : smd solvation model
   Lars Goerigk                                  : TD-DFT with DH, B97 family of functionals
   V. Asgeirsson, H. Jonsson                     : NEB implementation
   FAccTs GmbH                                   : IRC, NEB, NEB-TS, Multilevel, MM, QM/MM, CI optimization
   S Lehtola, MJT Oliveira, MAL Marques          : LibXC Library


 Your calculation uses the libint2 library for the computation of 2-el integrals
 For citations please refer to: http://libint.valeyev.net

 Your ORCA version has been built with support for libXC version: 4.2.3
 For citations please refer to: https://tddft.org/programs/libxc/

 This ORCA versions uses:
   CBLAS   interface :  Fast vector & matrix operations
   LAPACKE interface :  Fast linear algebra routines
   SCALAPACK package :  Parallel linear algebra routines


----- Orbital basis set information -----
Your calculation utilizes the basis: cc-pCVQZ 
             H : cc-pVQZ. Obtained from the ccRepo (grant-hill.group.shef.ac.uk/ccrepo) Feb. 2017
                 T. H. Dunning, Jr., J. Chem. Phys. 90, 1007 (1989)
            He : cc-pVQZ. Obtained from the ccRepo (grant-hill.group.shef.ac.uk/ccrepo) Feb. 2017
                 D. E. Woon, T. H. Dunning, Jr., J. Chem. Phys. 100, 2975 (1994)
  Li-Be, Na-Mg : Obtained from the ccRepo (grant-hill.group.shef.ac.uk/ccrepo) Feb. 2017
                 B. P. Prascher, D. E. Woon, K. A. Peterson, T. H. Dunning, Jr., A. K. Wilson, Theor. Chem. Acc. 128, 69 (2011)
          B-Ne : Obtained from the ccRepo (grant-hill.group.shef.ac.uk/ccrepo) Feb. 2017
                 D. E. Woon, T. H. Dunning, Jr., J. Chem. Phys. 103, 4572 (1995)
                  K. A. Peterson, T. H. Dunning, Jr., J. Chem. Phys. 117, 10548 (2002)
         Al-Ar : Obtained from the EMSL Basis Set Exchange (bse.pnl.gov) Feb. 2017
                 K. A. Peterson, T. H. Dunning, Jr., J. Chem. Phys. 117, 10548 (2002)
            Ca : Obtained from the Peterson Research Group Website (tyr0.chem.wsu.edu/~kipeters) Feb. 2017
                 J. Koput, K. A. Peterson, J. Phys. Chem. A 106, 9595 (2002)
         Ga-Kr : Obtained from the Peterson Research Group Website (tyr0.chem.wsu.edu/~kipeters) Feb. 2017
                 N. J. DeYonker, K. A. Peterson, A. K. Wilson, J. Phys. Chem. A 111, 11383 (2007)

================================================================================
                                        WARNINGS
                       Please study these warnings very carefully!
================================================================================


INFO   : the flag for use of LIBINT has been found!

================================================================================
                                       INPUT FILE
================================================================================
NAME = Ne_cc-pcvqz_2192.575824_.inp
|  1> ! LDA cc-pcvqz nori grid5 finalgrid6 verytightscf
|  2> %Pal NProcs 18 End
|  3> 
|  4> % REL
|  5>   Method ZORA
|  6>   ModelPot 1, 0, 0, 0
|  7>   velit 2192.575824
|  8> END
|  9> 
| 10> *xyz 8 1
| 11> Ne 0.0 0.0 0.0
| 12> **                         ****END OF INPUT****
================================================================================

                       ****************************
                       * Single Point Calculation *
                       ****************************

---------------------------------
CARTESIAN COORDINATES (ANGSTROEM)
---------------------------------
  Ne     0.000000    0.000000    0.000000

----------------------------
CARTESIAN COORDINATES (A.U.)
----------------------------
  NO LB      ZA    FRAG     MASS         X           Y           Z
   0 Ne   10.0000    0    20.179    0.000000    0.000000    0.000000

--------------------------------
INTERNAL COORDINATES (ANGSTROEM)
--------------------------------
 Ne     0   0   0     0.000000000000     0.00000000     0.00000000

---------------------------
INTERNAL COORDINATES (A.U.)
---------------------------
 Ne     0   0   0     0.000000000000     0.00000000     0.00000000

---------------------
BASIS SET INFORMATION
---------------------
There are 1 groups of distinct atoms

 Group   1 Type Ne  : 24s9p5d3f1g contracted to 8s7p5d3f1g pattern {99111111/3111111/11111/111/1}

Atom   0Ne   basis set group =>   1


           ************************************************************
           *        Program running with 18 parallel MPI-processes    *
           *              working on a common directory               *
           ************************************************************
------------------------------------------------------------------------------
                           ORCA GTO INTEGRAL CALCULATION
------------------------------------------------------------------------------

                         BASIS SET STATISTICS AND STARTUP INFO

 # of primitive gaussian shells          ...   42
 # of primitive gaussian functions       ...  106
 # of contracted shells                  ...   24
 # of contracted basis functions         ...   84
 Highest angular momentum                ...    4
 Maximum contraction depth               ...    9
 Integral package used                   ... LIBINT
 Integral threshhold            Thresh   ...  1.000e-12
 Primitive cut-off              TCut     ...  1.000e-14


------------------------------ INTEGRAL EVALUATION ----------------------------


 * One electron integrals 
 Pre-screening matrix                    ... done
 Shell pair data                         ... done (   0.000 sec)



           ************************************************************
           *        Program running with 18 parallel MPI-processes    *
           *              working on a common directory               *
           ************************************************************
------------------------------------------------------------------------------
                          ORCA RELATIVISTIC HAMILTONIAN
------------------------------------------------------------------------------

Relativistic Method            ... ZORA(MP)
Treatment of potential         ... Van Wuellen
Nucleus model                  ... Point Nucleus
Speed of light used            ... 2192.57582400000001


            *************************************************
            *         ZERO ORDER REGULAR APPROXIMATION      *
            *                     ZORA(MP)                  *
            *            Programmed by FN according to      *
            *                   C. van Wuellen              *
            *       J. Chem. Phys. (1998) vol 109, 392-399  *
            *************************************************

Terms included in model potential: +V(e,N)
Basis function cutoff value   ... 1.000000e-12
Loading the fitted atomic densities  (DKH4)  ... done
Calculating the cutoffs                      ... done
Number of fit functions                      ... 11
Setting up the integration grid ... done


           ************************************************************
           *        Program running with 18 parallel MPI-processes    *
           *              working on a common directory               *
           ************************************************************
-------------------------------------------------------------------------------
                                 ORCA SCF
-------------------------------------------------------------------------------

------------
SCF SETTINGS
------------
Hamiltonian:
 Density Functional     Method          .... DFT(GTOs)
 Exchange Functional    Exchange        .... Slater
   X-Alpha parameter    XAlpha          ....  0.666667
 Correlation Functional Correlation     .... VWN-5
 Gradients option       PostSCFGGA      .... off
   Density functional embedding theory  .... OFF

Relativistic Settings:
 Scalar relativistic method             .... ZORA
 Speed of light used       Velit        ....       2192.57582
Orbital energies will be scaled


General Settings:
 Integral files         IntName         .... Ne_cc-pcvqz_2192.575824_
 Hartree-Fock type      HFTyp           .... RHF
 Total Charge           Charge          ....    8
 Multiplicity           Mult            ....    1
 Number of Electrons    NEL             ....    2
 Basis Dimension        Dim             ....   84
 Nuclear Repulsion      ENuc            ....      0.0000000000 Eh

Convergence Acceleration:
 DIIS                   CNVDIIS         .... on
   Start iteration      DIISMaxIt       ....    12
   Startup error        DIISStart       ....  0.200000
   # of expansion vecs  DIISMaxEq       ....     5
   Bias factor          DIISBfac        ....   1.050
   Max. coefficient     DIISMaxC        ....  10.000
 Newton-Raphson         CNVNR           .... off
 SOSCF                  CNVSOSCF        .... on
   Start iteration      SOSCFMaxIt      ....   150
   Startup grad/error   SOSCFStart      ....  0.003300
 Level Shifting         CNVShift        .... on
   Level shift para.    LevelShift      ....    0.2500
   Turn off err/grad.   ShiftErr        ....    0.0010
 Zerner damping         CNVZerner       .... off
 Static damping         CNVDamp         .... on
   Fraction old density DampFac         ....    0.7000
   Max. Damping (<1)    DampMax         ....    0.9800
   Min. Damping (>=0)   DampMin         ....    0.0000
   Turn off err/grad.   DampErr         ....    0.1000
 Fernandez-Rico         CNVRico         .... off

SCF Procedure:
 Maximum # iterations   MaxIter         ....   125
 SCF integral mode      SCFMode         .... Direct
   Integral package                     .... LIBINT
 Reset frequency        DirectResetFreq ....    20
 Integral Threshold     Thresh          ....  1.000e-12 Eh
 Primitive CutOff       TCut            ....  1.000e-14 Eh

Convergence Tolerance:
 Convergence Check Mode ConvCheckMode   .... Total+1el-Energy
 Convergence forced     ConvForced      .... 0
 Energy Change          TolE            ....  1.000e-09 Eh
 1-El. energy change                    ....  1.000e-06 Eh
 Orbital Gradient       TolG            ....  2.000e-06
 Orbital Rotation angle TolX            ....  2.000e-06
 DIIS Error             TolErr          ....  1.000e-08


Diagonalization of the overlap matrix:
Smallest eigenvalue                        ... 1.230e-04
Time for diagonalization                   ...    0.002 sec
Threshold for overlap eigenvalues          ... 1.000e-08
Number of eigenvalues below threshold      ... 0
Time for construction of square roots      ...    0.001 sec
Total time needed                          ...    0.003 sec

-------------------
DFT GRID GENERATION
-------------------

General Integration Accuracy     IntAcc      ...  5.010
Radial Grid Type                 RadialGrid  ... Gauss-Chebyshev
Angular Grid (max. acc.)         AngularGrid ... Lebedev-434
Angular grid pruning method      GridPruning ... 3 (G Style)
Weight generation scheme         WeightScheme... Becke
Basis function cutoff            BFCut       ...    1.0000e-12
Integration weight cutoff        WCut        ...    1.0000e-14
Grids for H and He will be reduced by one unit

# of grid points (after initial pruning)     ...  10818 (   0.0 sec)
# of grid points (after weights+screening)   ...  10818 (   0.0 sec)
Grid point division into batches done        ...    0.1 sec
Reduced shell lists constructed in    0.1 sec

Total number of grid points                  ...    10818
Total number of batches                      ...      170
Average number of points per batch           ...       63
Average number of grid points per atom       ...    10818
Average number of shells per batch           ...     0.00 ( 0.00%)
Average number of basis functions per batch  ...     0.00 ( 0.00%)
Average number of large shells per batch     ...     0.00 ( -nan%)
Average number of large basis fcns per batch ...     0.00 ( -nan%)
Maximum spatial batch extension              ...  16.29, 16.29, 16.29 au
Average spatial batch extension              ...   0.85,  0.86,  0.85 au

Time for grid setup =    0.133 sec

------------------------------
INITIAL GUESS: MODEL POTENTIAL
------------------------------
Loading ZORA relativistic densities                ... done
Calculating cut-offs                               ... done
Setting up the integral package                    ... done
Initializing the effective Hamiltonian             ... done
Starting the Coulomb interaction                   ... done (   0.0 sec)
Reading the grid                                   ... done
Mapping shells                                     ... done
Starting the XC term evaluation                    ... done (   0.0 sec)
  promolecular density results
     # of electrons  =     10.000000334
     EX              =    -11.053709298
     EC              =     -0.746638772
     EX+EC           =    -11.800348070
Transforming the Hamiltonian                       ... done (   0.0 sec)
Diagonalizing the Hamiltonian                      ... done (   0.0 sec)
Back transforming the eigenvectors                 ... done (   0.0 sec)
Now organizing SCF variables                       ... done
                      ------------------
                      INITIAL GUESS DONE (   0.2 sec)
                      ------------------
--------------
SCF ITERATIONS
--------------
ITER       Energy         Delta-E        Max-DP      RMS-DP      [F,P]     Damp
               ***  Starting incremental Fock matrix formation  ***
  0    -93.2007885146   0.000000000000 0.06282534  0.00089062  0.8377420 0.7000
  1    -93.2046945745  -0.003906059905 0.04318959  0.00061273  0.5778824 0.7000
  2    -93.2073703418  -0.002675767302 0.02948760  0.00041867  0.3974623 0.7000
                      *** Initiating the SOSCF procedure ***
                      *** Re-Reading the Fockian *** 
                      *** Removing any level shift *** 
ITER      Energy       Delta-E        Grad      Rot      Max-DP    RMS-DP
  3    -93.20921605  -0.0018457058  0.003003  0.003003  0.067106  0.000954
               *** Restarting incremental Fock matrix formation ***
  4    -93.21344009  -0.0042240388  0.006844  0.000113  0.003861  0.000053
  5    -93.21344314  -0.0000030569  0.000369  0.000006  0.000206  0.000003
                  ***Gradient check signals convergence***
              ***Rediagonalizing the Fockian in SOSCF/NRSCF***

               *****************************************************
               *                     SUCCESS                       *
               *           SCF CONVERGED AFTER   6 CYCLES          *
               *****************************************************

Setting up the final grid:

General Integration Accuracy     IntAcc      ...  5.340
Radial Grid Type                 RadialGrid  ... Gauss-Chebyshev
Angular Grid (max. acc.)         AngularGrid ... Lebedev-590
Angular grid pruning method      GridPruning ... 3 (G Style)
Weight generation scheme         WeightScheme... Becke
Basis function cutoff            BFCut       ...    1.0000e-12
Integration weight cutoff        WCut        ...    1.0000e-14
Grids for H and He will be reduced by one unit

# of grid points (after initial pruning)     ...  16840 (   0.0 sec)
# of grid points (after weights+screening)   ...  16840 (   0.0 sec)
Grid point division into batches done        ...    0.2 sec
Reduced shell lists constructed in    0.2 sec

Total number of grid points                  ...    16840
Total number of batches                      ...      264
Average number of points per batch           ...       63
Average number of grid points per atom       ...    16840
Average number of shells per batch           ...     0.00 ( 0.00%)
Average number of basis functions per batch  ...     0.00 ( 0.00%)
Average number of large shells per batch     ...     0.00 ( -nan%)
Average number of large basis fcns per batch ...     0.00 ( -nan%)
Maximum spatial batch extension              ...  16.63, 16.63, 16.63 au
Average spatial batch extension              ...   0.74,  0.74,  0.69 au

Final grid set up in    0.2 sec
Final integration                            ... done (   0.0 sec)
Change in XC energy                          ...     0.000000540
Integrated number of electrons               ...     1.999999906
Previous integrated no of electrons          ...     2.000000009

----------------
TOTAL SCF ENERGY
----------------

Total Energy       :          -93.21344261 Eh           -2536.46672 eV

Components:
Nuclear Repulsion  :            0.00000000 Eh               0.00000 eV
Electronic Energy  :          -93.21344261 Eh           -2536.46672 eV
One Electron Energy:          -99.85350861 Eh           -2717.15211 eV
Two Electron Energy:            6.64006600 Eh             180.68538 eV

Virial components:
Potential Energy   :         -186.27943323 Eh           -5068.92108 eV
Kinetic Energy     :           93.06599062 Eh            2532.45435 eV
Virial Ratio       :            2.00158438


DFT components:
N(Alpha)           :        0.999999952772 electrons
N(Beta)            :        0.999999952772 electrons
N(Total)           :        1.999999905544 electrons
E(X)               :       -5.146120581445 Eh       
E(C)               :       -0.202680269307 Eh       
E(XC)              :       -5.348800850752 Eh       
DFET-embed. en.    :        0.000000000000 Eh       

---------------
SCF CONVERGENCE
---------------

  Last Energy change         ...   -9.4216e-09  Tolerance :   1.0000e-09
  Last MAX-Density change    ...    6.0135e-09  Tolerance :   1.0000e-08
  Last RMS-Density change    ...    1.1431e-10  Tolerance :   1.0000e-09
  Last Orbital Gradient      ...    5.7728e-08  Tolerance :   2.0000e-06
  Last Orbital Rotation      ...    3.4438e-10  Tolerance :   2.0000e-06

             **** THE GBW FILE WAS UPDATED (Ne_cc-pcvqz_2192.575824_.gbw) ****
             **** DENSITY FILE WAS UPDATED (Ne_cc-pcvqz_2192.575824_.scfp) ****
             **** ENERGY FILE WAS UPDATED (Ne_cc-pcvqz_2192.575824_.en.tmp) ****
             **** THE GBW FILE WAS UPDATED (Ne_cc-pcvqz_2192.575824_.gbw) ****
             **** DENSITY FILE WAS UPDATED (Ne_cc-pcvqz_2192.575824_.scfp) ****
----------------
ORBITAL ENERGIES
----------------

  NO   OCC          E(Eh)            E(eV) 
   0   2.0000     -41.479181     -1128.7059 
   1   0.0000      -9.048953      -246.2345 
   2   0.0000      -8.612500      -234.3580 
   3   0.0000      -8.612500      -234.3580 
   4   0.0000      -8.612500      -234.3580 
   5   0.0000      -3.828837      -104.1880 
   6   0.0000      -3.687842      -100.3513 
   7   0.0000      -3.687842      -100.3513 
   8   0.0000      -3.687842      -100.3513 
   9   0.0000      -3.586842       -97.6029 
  10   0.0000      -3.586842       -97.6029 
  11   0.0000      -3.586842       -97.6029 
  12   0.0000      -3.586842       -97.6029 
  13   0.0000      -3.586842       -97.6029 
  14   0.0000      -1.902968       -51.7824 
  15   0.0000      -1.902968       -51.7824 
  16   0.0000      -1.902968       -51.7824 
  17   0.0000      -1.128857       -30.7178 
  18   0.0000      -0.444006       -12.0820 
  19   0.0000      -0.444006       -12.0820 
  20   0.0000      -0.444006       -12.0820 
  21   0.0000      -0.444006       -12.0820 
  22   0.0000      -0.444006       -12.0820 
  23   0.0000      -0.377293       -10.2667 
  24   0.0000      -0.377293       -10.2667 
  25   0.0000      -0.377293       -10.2667 
  26   0.0000      -0.377293       -10.2667 
  27   0.0000      -0.377293       -10.2667 
  28   0.0000      -0.377293       -10.2667 
  29   0.0000      -0.377293       -10.2667 
  30   0.0000       5.058200       137.6406 
  31   0.0000       5.058200       137.6406 
  32   0.0000       5.058200       137.6406 
  33   0.0000       7.385342       200.9654 
  34   0.0000       7.385342       200.9654 
  35   0.0000       7.385342       200.9654 
  36   0.0000       7.385342       200.9654 
  37   0.0000       7.385342       200.9654 
  38   0.0000       7.385342       200.9654 
  39   0.0000       7.385342       200.9654 
  40   0.0000       7.385342       200.9654 
  41   0.0000       7.385342       200.9654 
  42   0.0000      10.940372       297.7026 
  43   0.0000      10.940372       297.7026 
  44   0.0000      10.940372       297.7026 
  45   0.0000      10.940372       297.7026 
  46   0.0000      10.940372       297.7026 
  47   0.0000      10.940372       297.7026 
  48   0.0000      10.940372       297.7026 
  49   0.0000      11.262361       306.4644 
  50   0.0000      11.262361       306.4644 
  51   0.0000      11.262361       306.4644 
  52   0.0000      11.262361       306.4644 
  53   0.0000      11.262361       306.4644 
  54   0.0000      15.165779       412.6818 
  55   0.0000      39.046528      1062.5100 
  56   0.0000      39.046528      1062.5100 
  57   0.0000      39.046528      1062.5100 
  58   0.0000      63.330144      1723.3008 
  59   0.0000      63.330144      1723.3008 
  60   0.0000      63.330144      1723.3008 
  61   0.0000      63.330144      1723.3008 
  62   0.0000      63.330144      1723.3008 
  63   0.0000      84.540396      2300.4611 
  64   0.0000     100.212143      2726.9111 
  65   0.0000     100.212143      2726.9111 
  66   0.0000     100.212143      2726.9111 
  67   0.0000     100.212143      2726.9111 
  68   0.0000     100.212143      2726.9111 
  69   0.0000     100.212143      2726.9111 
  70   0.0000     100.212143      2726.9111 
  71   0.0000     164.155514      4466.8986 
  72   0.0000     164.155514      4466.8986 
  73   0.0000     164.155514      4466.8986 
  74   0.0000     296.864449      8078.0923 
  75   0.0000     296.864449      8078.0923 
  76   0.0000     296.864449      8078.0923 
  77   0.0000     296.864449      8078.0923 
  78   0.0000     296.864449      8078.0923 
  79   0.0000     317.068777      8627.8801 
  80   0.0000     588.534079     16014.8265 
  81   0.0000     588.534079     16014.8265 
  82   0.0000     588.534079     16014.8265 
  83   0.0000    1357.217696     36931.7711 

                    ********************************
                    * MULLIKEN POPULATION ANALYSIS *
                    ********************************

-----------------------
MULLIKEN ATOMIC CHARGES
-----------------------
   0 Ne:    8.000000
Sum of atomic charges:    8.0000000

--------------------------------
MULLIKEN REDUCED ORBITAL CHARGES
--------------------------------
  0 Nes       :     2.000000  s :     2.000000
      pz      :     0.000000  p :     0.000000
      px      :     0.000000
      py      :     0.000000
      dz2     :     0.000000  d :     0.000000
      dxz     :     0.000000
      dyz     :     0.000000
      dx2y2   :     0.000000
      dxy     :     0.000000
      f0      :     0.000000  f :     0.000000
      f+1     :     0.000000
      f-1     :     0.000000
      f+2     :     0.000000
      f-2     :     0.000000
      f+3     :     0.000000
      f-3     :     0.000000
      g0      :     0.000000  g :     0.000000
      g+1     :     0.000000
      g-1     :     0.000000
      g+2     :     0.000000
      g-2     :     0.000000
      g+3     :     0.000000
      g-3     :     0.000000
      g+4     :     0.000000
      g-4     :     0.000000


                     *******************************
                     * LOEWDIN POPULATION ANALYSIS *
                     *******************************

----------------------
LOEWDIN ATOMIC CHARGES
----------------------
   0 Ne:    8.000000

-------------------------------
LOEWDIN REDUCED ORBITAL CHARGES
-------------------------------
  0 Nes       :     2.000000  s :     2.000000
      pz      :     0.000000  p :     0.000000
      px      :     0.000000
      py      :     0.000000
      dz2     :     0.000000  d :     0.000000
      dxz     :     0.000000
      dyz     :     0.000000
      dx2y2   :     0.000000
      dxy     :     0.000000
      f0      :     0.000000  f :     0.000000
      f+1     :     0.000000
      f-1     :     0.000000
      f+2     :     0.000000
      f-2     :     0.000000
      f+3     :     0.000000
      f-3     :     0.000000
      g0      :     0.000000  g :     0.000000
      g+1     :     0.000000
      g-1     :     0.000000
      g+2     :     0.000000
      g-2     :     0.000000
      g+3     :     0.000000
      g-3     :     0.000000
      g+4     :     0.000000
      g-4     :     0.000000


                      *****************************
                      * MAYER POPULATION ANALYSIS *
                      *****************************

  NA   - Mulliken gross atomic population
  ZA   - Total nuclear charge
  QA   - Mulliken gross atomic charge
  VA   - Mayer's total valence
  BVA  - Mayer's bonded valence
  FA   - Mayer's free valence

  ATOM       NA         ZA         QA         VA         BVA        FA
  0 Ne     2.0000    10.0000     8.0000     0.0000     0.0000     0.0000

  Mayer bond orders larger than 0.100000


--------------------------
ATOM BASIS FOR ELEMENT Ne
--------------------------
 NewGTO Ne
 S 24
    1      99920.000000000000         0.000086612766
    2      14960.000000000000         0.000673766751
    3       3399.000000000000         0.003543066410
    4        958.900000000000         0.014771505128
    5        311.200000000000         0.051325113817
    6        111.700000000000         0.144768202986
    7         43.320000000000         0.306732061426
    8         17.800000000000         0.402955823238
    9          7.503000000000         0.220201879547
   10      99920.000000000000        -0.000000223889
   11      14960.000000000000        -0.000001768721
   12       3399.000000000000        -0.000009224218
   13        958.900000000000        -0.000039180537
   14        311.200000000000        -0.000136941573
   15        111.700000000000        -0.000414384551
   16         43.320000000000        -0.000963986731
   17         17.800000000000        -0.001772986453
   18          7.503000000000        -0.001279390051
   19          2.337000000000         0.011383744981
   20          0.900100000000        -0.001763070013
   21          0.330100000000         0.000348443924
   22         20.180000000000         0.002196770705
   23         54.042000000000        -0.001823323462
   24        144.725000000000         0.000262616500
 S 24
    1      99920.000000000000         0.000008204837
    2      14960.000000000000         0.000063825999
    3       3399.000000000000         0.000335635075
    4        958.900000000000         0.001399306323
    5        311.200000000000         0.004862033738
    6        111.700000000000         0.013713907965
    7         43.320000000000         0.029056762283
    8         17.800000000000         0.038172049938
    9          7.503000000000         0.020859748533
   10      99920.000000000000         0.000019866494
   11      14960.000000000000         0.000156945301
   12       3399.000000000000         0.000818499547
   13        958.900000000000         0.003476636425
   14        311.200000000000         0.012151340969
   15        111.700000000000         0.036769900159
   16         43.320000000000         0.085538169283
   17         17.800000000000         0.157323758193
   18          7.503000000000         0.113525092507
   19          2.337000000000        -0.761320628046
   20          0.900100000000        -0.426232286225
   21          0.330100000000         0.017465033274
   22         20.180000000000         0.043710746197
   23         54.042000000000         0.004982887569
   24        144.725000000000         0.001435407895
 S 24
    1      99920.000000000000         0.000008543996
    2      14960.000000000000         0.000066464339
    3       3399.000000000000         0.000349509033
    4        958.900000000000         0.001457148659
    5        311.200000000000         0.005063012884
    6        111.700000000000         0.014280792040
    7         43.320000000000         0.030257865269
    8         17.800000000000         0.039749946426
    9          7.503000000000         0.021722016187
   10      99920.000000000000        -0.000023103723
   11      14960.000000000000        -0.000182519408
   12       3399.000000000000        -0.000951873368
   13        958.900000000000        -0.004043151441
   14        311.200000000000        -0.014131391881
   15        111.700000000000        -0.042761524830
   16         43.320000000000        -0.099476542877
   17         17.800000000000        -0.182959533838
   18          7.503000000000        -0.132023911980
   19          2.337000000000         0.906572813623
   20          0.900100000000         0.096660056314
   21          0.330100000000        -1.241500484955
   22         20.180000000000         0.016225012778
   23         54.042000000000        -0.000939513633
   24        144.725000000000         0.001253173266
 S 24
    1      99920.000000000000        -0.000080843252
    2      14960.000000000000        -0.000628885295
    3       3399.000000000000        -0.003307053015
    4        958.900000000000        -0.013787534558
    5        311.200000000000        -0.047906206869
    6        111.700000000000        -0.135124794950
    7         43.320000000000        -0.286299795467
    8         17.800000000000        -0.376113827940
    9          7.503000000000        -0.205533626913
   10      99920.000000000000         0.000100797619
   11      14960.000000000000         0.000796301187
   12       3399.000000000000         0.004152861886
   13        958.900000000000         0.017639583256
   14        311.200000000000         0.061652863419
   15        111.700000000000         0.186561272392
   16         43.320000000000         0.433999266540
   17         17.800000000000         0.798221381601
   18          7.503000000000         0.575997911747
   19          2.337000000000        -2.824048703610
   20          0.900100000000         3.973101669078
   21          0.330100000000        -1.984395717372
   22         20.180000000000        -0.314293375029
   23         54.042000000000        -0.008928272705
   24        144.725000000000        -0.015793352298
 S 24
    1      99920.000000000000        -0.001188246121
    2      14960.000000000000        -0.009243449479
    3       3399.000000000000        -0.048607556451
    4        958.900000000000        -0.202651230947
    5        311.200000000000        -0.704132544592
    6        111.700000000000        -1.986084307717
    7         43.320000000000        -4.208076920963
    8         17.800000000000        -5.528176911309
    9          7.503000000000        -3.020963778499
   10      99920.000000000000         0.001128712956
   11      14960.000000000000         0.008916832355
   12       3399.000000000000         0.046502973800
   13        958.900000000000         0.197524767355
   14        311.200000000000         0.690377279731
   15        111.700000000000         2.089078375197
   16         43.320000000000         4.859842940361
   17         17.800000000000         8.938334336713
   18          7.503000000000         6.449917317571
   19          2.337000000000        -3.562858690117
   20          0.900100000000         2.293141742382
   21          0.330100000000        -0.710413009081
   22         20.180000000000        -5.274874147813
   23         54.042000000000        -0.285859671569
   24        144.725000000000        -0.220670703453
 S 24
    1      99920.000000000000         0.000666734861
    2      14960.000000000000         0.005186576996
    3       3399.000000000000         0.027274107434
    4        958.900000000000         0.113709304644
    5        311.200000000000         0.395094673981
    6        111.700000000000         1.114408555724
    7         43.320000000000         2.361187239455
    8         17.800000000000         3.101906411313
    9          7.503000000000         1.695088102861
   10      99920.000000000000        -0.000831313242
   11      14960.000000000000        -0.006567374609
   12       3399.000000000000        -0.034250105558
   13        958.900000000000        -0.145479817296
   14        311.200000000000        -0.508472744281
   15        111.700000000000        -1.538636113387
   16         43.320000000000        -3.579343859095
   17         17.800000000000        -6.583211126628
   18          7.503000000000        -4.750456388330
   19          2.337000000000         1.811287798942
   20          0.900100000000        -1.000129601707
   21          0.330100000000         0.296876644998
   22         20.180000000000         8.155736980784
   23         54.042000000000        -1.731471663700
   24        144.725000000000         0.543176177387
 S 24
    1      99920.000000000000         0.000403542188
    2      14960.000000000000         0.003139182838
    3       3399.000000000000         0.016507690917
    4        958.900000000000         0.068822712529
    5        311.200000000000         0.239131593095
    6        111.700000000000         0.674497306187
    7         43.320000000000         1.429111813827
    8         17.800000000000         1.877433108107
    9          7.503000000000         1.025954398193
   10      99920.000000000000        -0.000470305301
   11      14960.000000000000        -0.003715411877
   12       3399.000000000000        -0.019376578399
   13        958.900000000000        -0.082303427664
   14        311.200000000000        -0.287662237318
   15        111.700000000000        -0.870464566238
   16         43.320000000000        -2.024970018977
   17         17.800000000000        -3.724371193381
   18          7.503000000000        -2.687512611671
   19          2.337000000000         0.890541857337
   20          0.900100000000        -0.488249172812
   21          0.330100000000         0.145442214575
   22         20.180000000000         5.289383144372
   23         54.042000000000        -3.846989354644
   24        144.725000000000         2.749606794842
 S 24
    1      99920.000000000000         0.006074262244
    2      14960.000000000000         0.047252109784
    3       3399.000000000000         0.248479704365
    4        958.900000000000         1.035944236475
    5        311.200000000000         3.599494796430
    6        111.700000000000        10.152776186532
    7         43.320000000000        21.511505321423
    8         17.800000000000        28.259798781949
    9          7.503000000000        15.443034815562
   10      99920.000000000000        -0.002588692090
   11      14960.000000000000        -0.020450667513
   12       3399.000000000000        -0.106654114119
   13        958.900000000000        -0.453021115795
   14        311.200000000000        -1.583373517007
   15        111.700000000000        -4.791280755255
   16         43.320000000000       -11.146002098422
   17         17.800000000000       -20.499982097362
   18          7.503000000000       -14.792822080574
   19          2.337000000000        -0.446941199740
   20          0.900100000000         0.253864899112
   21          0.330100000000        -0.076627473333
   22         20.180000000000       -11.469731854748
   23         54.042000000000        -7.386401972235
   24        144.725000000000        -7.206154465010
 P 9
    1         99.680000000000         0.013273041343
    2         23.150000000000         0.092945654569
    3          7.108000000000         0.350563136861
    4          2.441000000000         0.581571654868
    5          0.833900000000         0.148060822001
    6          0.266200000000        -0.009915621270
    7         22.222000000000        -0.005458721388
    8         65.622000000000        -0.002057380777
    9        193.780000000000         0.000091401377
 P 9
    1         99.680000000000         0.008442515095
    2         23.150000000000         0.059119464140
    3          7.108000000000         0.222980890227
    4          2.441000000000         0.439589002641
    5          0.833900000000        -0.765380796025
    6          0.266200000000        -0.473402054682
    7         22.222000000000        -0.004165435760
    8         65.622000000000        -0.002530394320
    9        193.780000000000        -0.000022542872
 P 9
    1         99.680000000000         0.007639315441
    2         23.150000000000         0.053494987002
    3          7.108000000000         0.201767049106
    4          2.441000000000         0.485246036627
    5          0.833900000000        -1.580713548927
    6          0.266200000000         1.362368790536
    7         22.222000000000         0.000395535796
    8         65.622000000000        -0.002953669168
    9        193.780000000000         0.000145339032
 P 9
    1         99.680000000000         0.054734283295
    2         23.150000000000         0.383281695344
    3          7.108000000000         1.445623617843
    4          2.441000000000        -2.173336078568
    5          0.833900000000         1.428266041040
    6          0.266200000000        -0.497941164043
    7         22.222000000000        -0.346164121009
    8         65.622000000000        -0.010685271922
    9        193.780000000000        -0.013783980832
 P 9
    1         99.680000000000        -0.071870419517
    2         23.150000000000        -0.503279015986
    3          7.108000000000        -1.898217526987
    4          2.441000000000         1.200688698225
    5          0.833900000000        -0.552303328963
    6          0.266200000000         0.170889241465
    7         22.222000000000         2.147586780482
    8         65.622000000000        -0.070360699662
    9        193.780000000000         0.070592336240
 P 9
    1         99.680000000000         0.038130410636
    2         23.150000000000         0.267011597723
    3          7.108000000000         1.007087676231
    4          2.441000000000        -0.531039316110
    5          0.833900000000         0.237192649187
    6          0.266200000000        -0.073451975283
    7         22.222000000000        -1.992541706220
    8         65.622000000000         1.712536273295
    9        193.780000000000        -0.167872037645
 P 9
    1         99.680000000000        -0.017771812921
    2         23.150000000000        -0.124448703364
    3          7.108000000000        -0.469383189905
    4          2.441000000000         0.246413051446
    5          0.833900000000        -0.111071453432
    6          0.266200000000         0.034570999680
    7         22.222000000000         1.044295368496
    8         65.622000000000        -1.603714277822
    9        193.780000000000         1.598618879851
 D 5
    1          6.471000000000         0.057214516112
    2          2.213000000000         0.334342058174
    3          0.747000000000         0.737504824417
    4         23.613000000000         0.005979081864
    5         90.107000000000         0.000194314154
 D 5
    1          6.471000000000         0.051160566979
    2          2.213000000000         1.155851525846
    3          0.747000000000        -1.020450186461
    4         23.613000000000         0.021477980797
    5         90.107000000000        -0.000866267920
 D 5
    1          6.471000000000         1.361626460409
    2          2.213000000000        -1.180165623030
    3          0.747000000000         0.453041980070
    4         23.613000000000        -0.030592779519
    5         90.107000000000         0.011238200530
 D 5
    1          6.471000000000        -0.876580960698
    2          2.213000000000         0.458802703436
    3          0.747000000000        -0.155655108716
    4         23.613000000000         1.248170359480
    5         90.107000000000        -0.065320579821
 D 5
    1          6.471000000000         0.306138328890
    2          2.213000000000        -0.153718783874
    3          0.747000000000         0.052670384066
    4         23.613000000000        -0.656228034573
    5         90.107000000000         1.170268598317
 F 3
    1          4.657000000000        -0.021568908937
    2          1.524000000000         1.010818838918
    3         28.830000000000         0.003086616482
 F 3
    1          4.657000000000         1.165433499937
    2          1.524000000000        -0.579484808706
    3         28.830000000000        -0.003856363342
 F 3
    1          4.657000000000        -0.243126946066
    2          1.524000000000         0.097100685969
    3         28.830000000000         1.022628015980
 G 1
    1          2.983000000000         1.000000000000
 end
  // -----------------------------------------------
  // The basis set
  // -----------------------------------------------
  BAS[ATNO] = new BFNGauss[NSH];
  // Basis function   1 L = s
  InitBFNGauss(BAS[ATNO][  0]);
  BAS[ATNO][  0].l  = 0;
  BAS[ATNO][  0].ng = 24;
  BAS[ATNO][  0].a[  0] =     99920.000000000000;     BAS[ATNO][  0].d[  0] =         0.000086612766;
  BAS[ATNO][  0].a[  1] =     14960.000000000000;     BAS[ATNO][  0].d[  1] =         0.000673766751;
  BAS[ATNO][  0].a[  2] =      3399.000000000000;     BAS[ATNO][  0].d[  2] =         0.003543066410;
  BAS[ATNO][  0].a[  3] =       958.900000000000;     BAS[ATNO][  0].d[  3] =         0.014771505128;
  BAS[ATNO][  0].a[  4] =       311.200000000000;     BAS[ATNO][  0].d[  4] =         0.051325113817;
  BAS[ATNO][  0].a[  5] =       111.700000000000;     BAS[ATNO][  0].d[  5] =         0.144768202986;
  BAS[ATNO][  0].a[  6] =        43.320000000000;     BAS[ATNO][  0].d[  6] =         0.306732061426;
  BAS[ATNO][  0].a[  7] =        17.800000000000;     BAS[ATNO][  0].d[  7] =         0.402955823238;
  BAS[ATNO][  0].a[  8] =         7.503000000000;     BAS[ATNO][  0].d[  8] =         0.220201879547;
  BAS[ATNO][  0].a[  9] =     99920.000000000000;     BAS[ATNO][  0].d[  9] =        -0.000000223889;
  BAS[ATNO][  0].a[ 10] =     14960.000000000000;     BAS[ATNO][  0].d[ 10] =        -0.000001768721;
  BAS[ATNO][  0].a[ 11] =      3399.000000000000;     BAS[ATNO][  0].d[ 11] =        -0.000009224218;
  BAS[ATNO][  0].a[ 12] =       958.900000000000;     BAS[ATNO][  0].d[ 12] =        -0.000039180537;
  BAS[ATNO][  0].a[ 13] =       311.200000000000;     BAS[ATNO][  0].d[ 13] =        -0.000136941573;
  BAS[ATNO][  0].a[ 14] =       111.700000000000;     BAS[ATNO][  0].d[ 14] =        -0.000414384551;
  BAS[ATNO][  0].a[ 15] =        43.320000000000;     BAS[ATNO][  0].d[ 15] =        -0.000963986731;
  BAS[ATNO][  0].a[ 16] =        17.800000000000;     BAS[ATNO][  0].d[ 16] =        -0.001772986453;
  BAS[ATNO][  0].a[ 17] =         7.503000000000;     BAS[ATNO][  0].d[ 17] =        -0.001279390051;
  BAS[ATNO][  0].a[ 18] =         2.337000000000;     BAS[ATNO][  0].d[ 18] =         0.011383744981;
  BAS[ATNO][  0].a[ 19] =         0.900100000000;     BAS[ATNO][  0].d[ 19] =        -0.001763070013;
  BAS[ATNO][  0].a[ 20] =         0.330100000000;     BAS[ATNO][  0].d[ 20] =         0.000348443924;
  BAS[ATNO][  0].a[ 21] =        20.180000000000;     BAS[ATNO][  0].d[ 21] =         0.002196770705;
  BAS[ATNO][  0].a[ 22] =        54.042000000000;     BAS[ATNO][  0].d[ 22] =        -0.001823323462;
  BAS[ATNO][  0].a[ 23] =       144.725000000000;     BAS[ATNO][  0].d[ 23] =         0.000262616500;

  // Basis function   2 L = s
  InitBFNGauss(BAS[ATNO][  1]);
  BAS[ATNO][  1].l  = 0;
  BAS[ATNO][  1].ng = 24;
  BAS[ATNO][  1].a[  0] =     99920.000000000000;     BAS[ATNO][  1].d[  0] =        -0.000008204837;
  BAS[ATNO][  1].a[  1] =     14960.000000000000;     BAS[ATNO][  1].d[  1] =        -0.000063825999;
  BAS[ATNO][  1].a[  2] =      3399.000000000000;     BAS[ATNO][  1].d[  2] =        -0.000335635075;
  BAS[ATNO][  1].a[  3] =       958.900000000000;     BAS[ATNO][  1].d[  3] =        -0.001399306323;
  BAS[ATNO][  1].a[  4] =       311.200000000000;     BAS[ATNO][  1].d[  4] =        -0.004862033738;
  BAS[ATNO][  1].a[  5] =       111.700000000000;     BAS[ATNO][  1].d[  5] =        -0.013713907965;
  BAS[ATNO][  1].a[  6] =        43.320000000000;     BAS[ATNO][  1].d[  6] =        -0.029056762283;
  BAS[ATNO][  1].a[  7] =        17.800000000000;     BAS[ATNO][  1].d[  7] =        -0.038172049938;
  BAS[ATNO][  1].a[  8] =         7.503000000000;     BAS[ATNO][  1].d[  8] =        -0.020859748533;
  BAS[ATNO][  1].a[  9] =     99920.000000000000;     BAS[ATNO][  1].d[  9] =        -0.000019866494;
  BAS[ATNO][  1].a[ 10] =     14960.000000000000;     BAS[ATNO][  1].d[ 10] =        -0.000156945301;
  BAS[ATNO][  1].a[ 11] =      3399.000000000000;     BAS[ATNO][  1].d[ 11] =        -0.000818499547;
  BAS[ATNO][  1].a[ 12] =       958.900000000000;     BAS[ATNO][  1].d[ 12] =        -0.003476636425;
  BAS[ATNO][  1].a[ 13] =       311.200000000000;     BAS[ATNO][  1].d[ 13] =        -0.012151340969;
  BAS[ATNO][  1].a[ 14] =       111.700000000000;     BAS[ATNO][  1].d[ 14] =        -0.036769900159;
  BAS[ATNO][  1].a[ 15] =        43.320000000000;     BAS[ATNO][  1].d[ 15] =        -0.085538169283;
  BAS[ATNO][  1].a[ 16] =        17.800000000000;     BAS[ATNO][  1].d[ 16] =        -0.157323758193;
  BAS[ATNO][  1].a[ 17] =         7.503000000000;     BAS[ATNO][  1].d[ 17] =        -0.113525092507;
  BAS[ATNO][  1].a[ 18] =         2.337000000000;     BAS[ATNO][  1].d[ 18] =         0.761320628046;
  BAS[ATNO][  1].a[ 19] =         0.900100000000;     BAS[ATNO][  1].d[ 19] =         0.426232286225;
  BAS[ATNO][  1].a[ 20] =         0.330100000000;     BAS[ATNO][  1].d[ 20] =        -0.017465033274;
  BAS[ATNO][  1].a[ 21] =        20.180000000000;     BAS[ATNO][  1].d[ 21] =        -0.043710746197;
  BAS[ATNO][  1].a[ 22] =        54.042000000000;     BAS[ATNO][  1].d[ 22] =        -0.004982887569;
  BAS[ATNO][  1].a[ 23] =       144.725000000000;     BAS[ATNO][  1].d[ 23] =        -0.001435407895;

  // Basis function   3 L = s
  InitBFNGauss(BAS[ATNO][  2]);
  BAS[ATNO][  2].l  = 0;
  BAS[ATNO][  2].ng = 24;
  BAS[ATNO][  2].a[  0] =     99920.000000000000;     BAS[ATNO][  2].d[  0] =        -0.000008543996;
  BAS[ATNO][  2].a[  1] =     14960.000000000000;     BAS[ATNO][  2].d[  1] =        -0.000066464339;
  BAS[ATNO][  2].a[  2] =      3399.000000000000;     BAS[ATNO][  2].d[  2] =        -0.000349509033;
  BAS[ATNO][  2].a[  3] =       958.900000000000;     BAS[ATNO][  2].d[  3] =        -0.001457148659;
  BAS[ATNO][  2].a[  4] =       311.200000000000;     BAS[ATNO][  2].d[  4] =        -0.005063012884;
  BAS[ATNO][  2].a[  5] =       111.700000000000;     BAS[ATNO][  2].d[  5] =        -0.014280792040;
  BAS[ATNO][  2].a[  6] =        43.320000000000;     BAS[ATNO][  2].d[  6] =        -0.030257865269;
  BAS[ATNO][  2].a[  7] =        17.800000000000;     BAS[ATNO][  2].d[  7] =        -0.039749946426;
  BAS[ATNO][  2].a[  8] =         7.503000000000;     BAS[ATNO][  2].d[  8] =        -0.021722016187;
  BAS[ATNO][  2].a[  9] =     99920.000000000000;     BAS[ATNO][  2].d[  9] =         0.000023103723;
  BAS[ATNO][  2].a[ 10] =     14960.000000000000;     BAS[ATNO][  2].d[ 10] =         0.000182519408;
  BAS[ATNO][  2].a[ 11] =      3399.000000000000;     BAS[ATNO][  2].d[ 11] =         0.000951873368;
  BAS[ATNO][  2].a[ 12] =       958.900000000000;     BAS[ATNO][  2].d[ 12] =         0.004043151441;
  BAS[ATNO][  2].a[ 13] =       311.200000000000;     BAS[ATNO][  2].d[ 13] =         0.014131391881;
  BAS[ATNO][  2].a[ 14] =       111.700000000000;     BAS[ATNO][  2].d[ 14] =         0.042761524830;
  BAS[ATNO][  2].a[ 15] =        43.320000000000;     BAS[ATNO][  2].d[ 15] =         0.099476542877;
  BAS[ATNO][  2].a[ 16] =        17.800000000000;     BAS[ATNO][  2].d[ 16] =         0.182959533838;
  BAS[ATNO][  2].a[ 17] =         7.503000000000;     BAS[ATNO][  2].d[ 17] =         0.132023911980;
  BAS[ATNO][  2].a[ 18] =         2.337000000000;     BAS[ATNO][  2].d[ 18] =        -0.906572813623;
  BAS[ATNO][  2].a[ 19] =         0.900100000000;     BAS[ATNO][  2].d[ 19] =        -0.096660056314;
  BAS[ATNO][  2].a[ 20] =         0.330100000000;     BAS[ATNO][  2].d[ 20] =         1.241500484955;
  BAS[ATNO][  2].a[ 21] =        20.180000000000;     BAS[ATNO][  2].d[ 21] =        -0.016225012778;
  BAS[ATNO][  2].a[ 22] =        54.042000000000;     BAS[ATNO][  2].d[ 22] =         0.000939513633;
  BAS[ATNO][  2].a[ 23] =       144.725000000000;     BAS[ATNO][  2].d[ 23] =        -0.001253173266;

  // Basis function   4 L = s
  InitBFNGauss(BAS[ATNO][  3]);
  BAS[ATNO][  3].l  = 0;
  BAS[ATNO][  3].ng = 24;
  BAS[ATNO][  3].a[  0] =     99920.000000000000;     BAS[ATNO][  3].d[  0] =        -0.000080843252;
  BAS[ATNO][  3].a[  1] =     14960.000000000000;     BAS[ATNO][  3].d[  1] =        -0.000628885295;
  BAS[ATNO][  3].a[  2] =      3399.000000000000;     BAS[ATNO][  3].d[  2] =        -0.003307053015;
  BAS[ATNO][  3].a[  3] =       958.900000000000;     BAS[ATNO][  3].d[  3] =        -0.013787534558;
  BAS[ATNO][  3].a[  4] =       311.200000000000;     BAS[ATNO][  3].d[  4] =        -0.047906206869;
  BAS[ATNO][  3].a[  5] =       111.700000000000;     BAS[ATNO][  3].d[  5] =        -0.135124794950;
  BAS[ATNO][  3].a[  6] =        43.320000000000;     BAS[ATNO][  3].d[  6] =        -0.286299795467;
  BAS[ATNO][  3].a[  7] =        17.800000000000;     BAS[ATNO][  3].d[  7] =        -0.376113827940;
  BAS[ATNO][  3].a[  8] =         7.503000000000;     BAS[ATNO][  3].d[  8] =        -0.205533626913;
  BAS[ATNO][  3].a[  9] =     99920.000000000000;     BAS[ATNO][  3].d[  9] =         0.000100797619;
  BAS[ATNO][  3].a[ 10] =     14960.000000000000;     BAS[ATNO][  3].d[ 10] =         0.000796301187;
  BAS[ATNO][  3].a[ 11] =      3399.000000000000;     BAS[ATNO][  3].d[ 11] =         0.004152861886;
  BAS[ATNO][  3].a[ 12] =       958.900000000000;     BAS[ATNO][  3].d[ 12] =         0.017639583256;
  BAS[ATNO][  3].a[ 13] =       311.200000000000;     BAS[ATNO][  3].d[ 13] =         0.061652863419;
  BAS[ATNO][  3].a[ 14] =       111.700000000000;     BAS[ATNO][  3].d[ 14] =         0.186561272392;
  BAS[ATNO][  3].a[ 15] =        43.320000000000;     BAS[ATNO][  3].d[ 15] =         0.433999266540;
  BAS[ATNO][  3].a[ 16] =        17.800000000000;     BAS[ATNO][  3].d[ 16] =         0.798221381601;
  BAS[ATNO][  3].a[ 17] =         7.503000000000;     BAS[ATNO][  3].d[ 17] =         0.575997911747;
  BAS[ATNO][  3].a[ 18] =         2.337000000000;     BAS[ATNO][  3].d[ 18] =        -2.824048703610;
  BAS[ATNO][  3].a[ 19] =         0.900100000000;     BAS[ATNO][  3].d[ 19] =         3.973101669078;
  BAS[ATNO][  3].a[ 20] =         0.330100000000;     BAS[ATNO][  3].d[ 20] =        -1.984395717372;
  BAS[ATNO][  3].a[ 21] =        20.180000000000;     BAS[ATNO][  3].d[ 21] =        -0.314293375029;
  BAS[ATNO][  3].a[ 22] =        54.042000000000;     BAS[ATNO][  3].d[ 22] =        -0.008928272705;
  BAS[ATNO][  3].a[ 23] =       144.725000000000;     BAS[ATNO][  3].d[ 23] =        -0.015793352298;

  // Basis function   5 L = s
  InitBFNGauss(BAS[ATNO][  4]);
  BAS[ATNO][  4].l  = 0;
  BAS[ATNO][  4].ng = 24;
  BAS[ATNO][  4].a[  0] =     99920.000000000000;     BAS[ATNO][  4].d[  0] =        -0.001188246121;
  BAS[ATNO][  4].a[  1] =     14960.000000000000;     BAS[ATNO][  4].d[  1] =        -0.009243449479;
  BAS[ATNO][  4].a[  2] =      3399.000000000000;     BAS[ATNO][  4].d[  2] =        -0.048607556451;
  BAS[ATNO][  4].a[  3] =       958.900000000000;     BAS[ATNO][  4].d[  3] =        -0.202651230947;
  BAS[ATNO][  4].a[  4] =       311.200000000000;     BAS[ATNO][  4].d[  4] =        -0.704132544592;
  BAS[ATNO][  4].a[  5] =       111.700000000000;     BAS[ATNO][  4].d[  5] =        -1.986084307717;
  BAS[ATNO][  4].a[  6] =        43.320000000000;     BAS[ATNO][  4].d[  6] =        -4.208076920963;
  BAS[ATNO][  4].a[  7] =        17.800000000000;     BAS[ATNO][  4].d[  7] =        -5.528176911309;
  BAS[ATNO][  4].a[  8] =         7.503000000000;     BAS[ATNO][  4].d[  8] =        -3.020963778499;
  BAS[ATNO][  4].a[  9] =     99920.000000000000;     BAS[ATNO][  4].d[  9] =         0.001128712956;
  BAS[ATNO][  4].a[ 10] =     14960.000000000000;     BAS[ATNO][  4].d[ 10] =         0.008916832355;
  BAS[ATNO][  4].a[ 11] =      3399.000000000000;     BAS[ATNO][  4].d[ 11] =         0.046502973800;
  BAS[ATNO][  4].a[ 12] =       958.900000000000;     BAS[ATNO][  4].d[ 12] =         0.197524767355;
  BAS[ATNO][  4].a[ 13] =       311.200000000000;     BAS[ATNO][  4].d[ 13] =         0.690377279731;
  BAS[ATNO][  4].a[ 14] =       111.700000000000;     BAS[ATNO][  4].d[ 14] =         2.089078375197;
  BAS[ATNO][  4].a[ 15] =        43.320000000000;     BAS[ATNO][  4].d[ 15] =         4.859842940361;
  BAS[ATNO][  4].a[ 16] =        17.800000000000;     BAS[ATNO][  4].d[ 16] =         8.938334336713;
  BAS[ATNO][  4].a[ 17] =         7.503000000000;     BAS[ATNO][  4].d[ 17] =         6.449917317571;
  BAS[ATNO][  4].a[ 18] =         2.337000000000;     BAS[ATNO][  4].d[ 18] =        -3.562858690117;
  BAS[ATNO][  4].a[ 19] =         0.900100000000;     BAS[ATNO][  4].d[ 19] =         2.293141742382;
  BAS[ATNO][  4].a[ 20] =         0.330100000000;     BAS[ATNO][  4].d[ 20] =        -0.710413009081;
  BAS[ATNO][  4].a[ 21] =        20.180000000000;     BAS[ATNO][  4].d[ 21] =        -5.274874147813;
  BAS[ATNO][  4].a[ 22] =        54.042000000000;     BAS[ATNO][  4].d[ 22] =        -0.285859671569;
  BAS[ATNO][  4].a[ 23] =       144.725000000000;     BAS[ATNO][  4].d[ 23] =        -0.220670703453;

  // Basis function   6 L = s
  InitBFNGauss(BAS[ATNO][  5]);
  BAS[ATNO][  5].l  = 0;
  BAS[ATNO][  5].ng = 24;
  BAS[ATNO][  5].a[  0] =     99920.000000000000;     BAS[ATNO][  5].d[  0] =         0.000666734861;
  BAS[ATNO][  5].a[  1] =     14960.000000000000;     BAS[ATNO][  5].d[  1] =         0.005186576996;
  BAS[ATNO][  5].a[  2] =      3399.000000000000;     BAS[ATNO][  5].d[  2] =         0.027274107434;
  BAS[ATNO][  5].a[  3] =       958.900000000000;     BAS[ATNO][  5].d[  3] =         0.113709304644;
  BAS[ATNO][  5].a[  4] =       311.200000000000;     BAS[ATNO][  5].d[  4] =         0.395094673981;
  BAS[ATNO][  5].a[  5] =       111.700000000000;     BAS[ATNO][  5].d[  5] =         1.114408555724;
  BAS[ATNO][  5].a[  6] =        43.320000000000;     BAS[ATNO][  5].d[  6] =         2.361187239455;
  BAS[ATNO][  5].a[  7] =        17.800000000000;     BAS[ATNO][  5].d[  7] =         3.101906411313;
  BAS[ATNO][  5].a[  8] =         7.503000000000;     BAS[ATNO][  5].d[  8] =         1.695088102861;
  BAS[ATNO][  5].a[  9] =     99920.000000000000;     BAS[ATNO][  5].d[  9] =        -0.000831313242;
  BAS[ATNO][  5].a[ 10] =     14960.000000000000;     BAS[ATNO][  5].d[ 10] =        -0.006567374609;
  BAS[ATNO][  5].a[ 11] =      3399.000000000000;     BAS[ATNO][  5].d[ 11] =        -0.034250105558;
  BAS[ATNO][  5].a[ 12] =       958.900000000000;     BAS[ATNO][  5].d[ 12] =        -0.145479817296;
  BAS[ATNO][  5].a[ 13] =       311.200000000000;     BAS[ATNO][  5].d[ 13] =        -0.508472744281;
  BAS[ATNO][  5].a[ 14] =       111.700000000000;     BAS[ATNO][  5].d[ 14] =        -1.538636113387;
  BAS[ATNO][  5].a[ 15] =        43.320000000000;     BAS[ATNO][  5].d[ 15] =        -3.579343859095;
  BAS[ATNO][  5].a[ 16] =        17.800000000000;     BAS[ATNO][  5].d[ 16] =        -6.583211126628;
  BAS[ATNO][  5].a[ 17] =         7.503000000000;     BAS[ATNO][  5].d[ 17] =        -4.750456388330;
  BAS[ATNO][  5].a[ 18] =         2.337000000000;     BAS[ATNO][  5].d[ 18] =         1.811287798942;
  BAS[ATNO][  5].a[ 19] =         0.900100000000;     BAS[ATNO][  5].d[ 19] =        -1.000129601707;
  BAS[ATNO][  5].a[ 20] =         0.330100000000;     BAS[ATNO][  5].d[ 20] =         0.296876644998;
  BAS[ATNO][  5].a[ 21] =        20.180000000000;     BAS[ATNO][  5].d[ 21] =         8.155736980784;
  BAS[ATNO][  5].a[ 22] =        54.042000000000;     BAS[ATNO][  5].d[ 22] =        -1.731471663700;
  BAS[ATNO][  5].a[ 23] =       144.725000000000;     BAS[ATNO][  5].d[ 23] =         0.543176177387;

  // Basis function   7 L = s
  InitBFNGauss(BAS[ATNO][  6]);
  BAS[ATNO][  6].l  = 0;
  BAS[ATNO][  6].ng = 24;
  BAS[ATNO][  6].a[  0] =     99920.000000000000;     BAS[ATNO][  6].d[  0] =         0.000403542188;
  BAS[ATNO][  6].a[  1] =     14960.000000000000;     BAS[ATNO][  6].d[  1] =         0.003139182838;
  BAS[ATNO][  6].a[  2] =      3399.000000000000;     BAS[ATNO][  6].d[  2] =         0.016507690917;
  BAS[ATNO][  6].a[  3] =       958.900000000000;     BAS[ATNO][  6].d[  3] =         0.068822712529;
  BAS[ATNO][  6].a[  4] =       311.200000000000;     BAS[ATNO][  6].d[  4] =         0.239131593095;
  BAS[ATNO][  6].a[  5] =       111.700000000000;     BAS[ATNO][  6].d[  5] =         0.674497306187;
  BAS[ATNO][  6].a[  6] =        43.320000000000;     BAS[ATNO][  6].d[  6] =         1.429111813827;
  BAS[ATNO][  6].a[  7] =        17.800000000000;     BAS[ATNO][  6].d[  7] =         1.877433108107;
  BAS[ATNO][  6].a[  8] =         7.503000000000;     BAS[ATNO][  6].d[  8] =         1.025954398193;
  BAS[ATNO][  6].a[  9] =     99920.000000000000;     BAS[ATNO][  6].d[  9] =        -0.000470305301;
  BAS[ATNO][  6].a[ 10] =     14960.000000000000;     BAS[ATNO][  6].d[ 10] =        -0.003715411877;
  BAS[ATNO][  6].a[ 11] =      3399.000000000000;     BAS[ATNO][  6].d[ 11] =        -0.019376578399;
  BAS[ATNO][  6].a[ 12] =       958.900000000000;     BAS[ATNO][  6].d[ 12] =        -0.082303427664;
  BAS[ATNO][  6].a[ 13] =       311.200000000000;     BAS[ATNO][  6].d[ 13] =        -0.287662237318;
  BAS[ATNO][  6].a[ 14] =       111.700000000000;     BAS[ATNO][  6].d[ 14] =        -0.870464566238;
  BAS[ATNO][  6].a[ 15] =        43.320000000000;     BAS[ATNO][  6].d[ 15] =        -2.024970018977;
  BAS[ATNO][  6].a[ 16] =        17.800000000000;     BAS[ATNO][  6].d[ 16] =        -3.724371193381;
  BAS[ATNO][  6].a[ 17] =         7.503000000000;     BAS[ATNO][  6].d[ 17] =        -2.687512611671;
  BAS[ATNO][  6].a[ 18] =         2.337000000000;     BAS[ATNO][  6].d[ 18] =         0.890541857337;
  BAS[ATNO][  6].a[ 19] =         0.900100000000;     BAS[ATNO][  6].d[ 19] =        -0.488249172812;
  BAS[ATNO][  6].a[ 20] =         0.330100000000;     BAS[ATNO][  6].d[ 20] =         0.145442214575;
  BAS[ATNO][  6].a[ 21] =        20.180000000000;     BAS[ATNO][  6].d[ 21] =         5.289383144372;
  BAS[ATNO][  6].a[ 22] =        54.042000000000;     BAS[ATNO][  6].d[ 22] =        -3.846989354644;
  BAS[ATNO][  6].a[ 23] =       144.725000000000;     BAS[ATNO][  6].d[ 23] =         2.749606794842;

  // Basis function   8 L = s
  InitBFNGauss(BAS[ATNO][  7]);
  BAS[ATNO][  7].l  = 0;
  BAS[ATNO][  7].ng = 24;
  BAS[ATNO][  7].a[  0] =     99920.000000000000;     BAS[ATNO][  7].d[  0] =         0.006074262244;
  BAS[ATNO][  7].a[  1] =     14960.000000000000;     BAS[ATNO][  7].d[  1] =         0.047252109784;
  BAS[ATNO][  7].a[  2] =      3399.000000000000;     BAS[ATNO][  7].d[  2] =         0.248479704365;
  BAS[ATNO][  7].a[  3] =       958.900000000000;     BAS[ATNO][  7].d[  3] =         1.035944236475;
  BAS[ATNO][  7].a[  4] =       311.200000000000;     BAS[ATNO][  7].d[  4] =         3.599494796430;
  BAS[ATNO][  7].a[  5] =       111.700000000000;     BAS[ATNO][  7].d[  5] =        10.152776186532;
  BAS[ATNO][  7].a[  6] =        43.320000000000;     BAS[ATNO][  7].d[  6] =        21.511505321423;
  BAS[ATNO][  7].a[  7] =        17.800000000000;     BAS[ATNO][  7].d[  7] =        28.259798781949;
  BAS[ATNO][  7].a[  8] =         7.503000000000;     BAS[ATNO][  7].d[  8] =        15.443034815562;
  BAS[ATNO][  7].a[  9] =     99920.000000000000;     BAS[ATNO][  7].d[  9] =        -0.002588692090;
  BAS[ATNO][  7].a[ 10] =     14960.000000000000;     BAS[ATNO][  7].d[ 10] =        -0.020450667513;
  BAS[ATNO][  7].a[ 11] =      3399.000000000000;     BAS[ATNO][  7].d[ 11] =        -0.106654114119;
  BAS[ATNO][  7].a[ 12] =       958.900000000000;     BAS[ATNO][  7].d[ 12] =        -0.453021115795;
  BAS[ATNO][  7].a[ 13] =       311.200000000000;     BAS[ATNO][  7].d[ 13] =        -1.583373517007;
  BAS[ATNO][  7].a[ 14] =       111.700000000000;     BAS[ATNO][  7].d[ 14] =        -4.791280755255;
  BAS[ATNO][  7].a[ 15] =        43.320000000000;     BAS[ATNO][  7].d[ 15] =       -11.146002098422;
  BAS[ATNO][  7].a[ 16] =        17.800000000000;     BAS[ATNO][  7].d[ 16] =       -20.499982097362;
  BAS[ATNO][  7].a[ 17] =         7.503000000000;     BAS[ATNO][  7].d[ 17] =       -14.792822080574;
  BAS[ATNO][  7].a[ 18] =         2.337000000000;     BAS[ATNO][  7].d[ 18] =        -0.446941199740;
  BAS[ATNO][  7].a[ 19] =         0.900100000000;     BAS[ATNO][  7].d[ 19] =         0.253864899112;
  BAS[ATNO][  7].a[ 20] =         0.330100000000;     BAS[ATNO][  7].d[ 20] =        -0.076627473333;
  BAS[ATNO][  7].a[ 21] =        20.180000000000;     BAS[ATNO][  7].d[ 21] =       -11.469731854748;
  BAS[ATNO][  7].a[ 22] =        54.042000000000;     BAS[ATNO][  7].d[ 22] =        -7.386401972235;
  BAS[ATNO][  7].a[ 23] =       144.725000000000;     BAS[ATNO][  7].d[ 23] =        -7.206154465010;

  // Basis function   9 L = p
  InitBFNGauss(BAS[ATNO][  8]);
  BAS[ATNO][  8].l  = 1;
  BAS[ATNO][  8].ng = 9;
  BAS[ATNO][  8].a[  0] =        99.680000000000;     BAS[ATNO][  8].d[  0] =         0.013273041343;
  BAS[ATNO][  8].a[  1] =        23.150000000000;     BAS[ATNO][  8].d[  1] =         0.092945654569;
  BAS[ATNO][  8].a[  2] =         7.108000000000;     BAS[ATNO][  8].d[  2] =         0.350563136861;
  BAS[ATNO][  8].a[  3] =         2.441000000000;     BAS[ATNO][  8].d[  3] =         0.581571654868;
  BAS[ATNO][  8].a[  4] =         0.833900000000;     BAS[ATNO][  8].d[  4] =         0.148060822001;
  BAS[ATNO][  8].a[  5] =         0.266200000000;     BAS[ATNO][  8].d[  5] =        -0.009915621270;
  BAS[ATNO][  8].a[  6] =        22.222000000000;     BAS[ATNO][  8].d[  6] =        -0.005458721388;
  BAS[ATNO][  8].a[  7] =        65.622000000000;     BAS[ATNO][  8].d[  7] =        -0.002057380777;
  BAS[ATNO][  8].a[  8] =       193.780000000000;     BAS[ATNO][  8].d[  8] =         0.000091401377;

  // Basis function  10 L = p
  InitBFNGauss(BAS[ATNO][  9]);
  BAS[ATNO][  9].l  = 1;
  BAS[ATNO][  9].ng = 9;
  BAS[ATNO][  9].a[  0] =        99.680000000000;     BAS[ATNO][  9].d[  0] =        -0.008442515095;
  BAS[ATNO][  9].a[  1] =        23.150000000000;     BAS[ATNO][  9].d[  1] =        -0.059119464140;
  BAS[ATNO][  9].a[  2] =         7.108000000000;     BAS[ATNO][  9].d[  2] =        -0.222980890227;
  BAS[ATNO][  9].a[  3] =         2.441000000000;     BAS[ATNO][  9].d[  3] =        -0.439589002641;
  BAS[ATNO][  9].a[  4] =         0.833900000000;     BAS[ATNO][  9].d[  4] =         0.765380796025;
  BAS[ATNO][  9].a[  5] =         0.266200000000;     BAS[ATNO][  9].d[  5] =         0.473402054682;
  BAS[ATNO][  9].a[  6] =        22.222000000000;     BAS[ATNO][  9].d[  6] =         0.004165435760;
  BAS[ATNO][  9].a[  7] =        65.622000000000;     BAS[ATNO][  9].d[  7] =         0.002530394320;
  BAS[ATNO][  9].a[  8] =       193.780000000000;     BAS[ATNO][  9].d[  8] =         0.000022542872;

  // Basis function  11 L = p
  InitBFNGauss(BAS[ATNO][ 10]);
  BAS[ATNO][ 10].l  = 1;
  BAS[ATNO][ 10].ng = 9;
  BAS[ATNO][ 10].a[  0] =        99.680000000000;     BAS[ATNO][ 10].d[  0] =        -0.007639315441;
  BAS[ATNO][ 10].a[  1] =        23.150000000000;     BAS[ATNO][ 10].d[  1] =        -0.053494987002;
  BAS[ATNO][ 10].a[  2] =         7.108000000000;     BAS[ATNO][ 10].d[  2] =        -0.201767049106;
  BAS[ATNO][ 10].a[  3] =         2.441000000000;     BAS[ATNO][ 10].d[  3] =        -0.485246036627;
  BAS[ATNO][ 10].a[  4] =         0.833900000000;     BAS[ATNO][ 10].d[  4] =         1.580713548927;
  BAS[ATNO][ 10].a[  5] =         0.266200000000;     BAS[ATNO][ 10].d[  5] =        -1.362368790536;
  BAS[ATNO][ 10].a[  6] =        22.222000000000;     BAS[ATNO][ 10].d[  6] =        -0.000395535796;
  BAS[ATNO][ 10].a[  7] =        65.622000000000;     BAS[ATNO][ 10].d[  7] =         0.002953669168;
  BAS[ATNO][ 10].a[  8] =       193.780000000000;     BAS[ATNO][ 10].d[  8] =        -0.000145339032;

  // Basis function  12 L = p
  InitBFNGauss(BAS[ATNO][ 11]);
  BAS[ATNO][ 11].l  = 1;
  BAS[ATNO][ 11].ng = 9;
  BAS[ATNO][ 11].a[  0] =        99.680000000000;     BAS[ATNO][ 11].d[  0] =        -0.054734283295;
  BAS[ATNO][ 11].a[  1] =        23.150000000000;     BAS[ATNO][ 11].d[  1] =        -0.383281695344;
  BAS[ATNO][ 11].a[  2] =         7.108000000000;     BAS[ATNO][ 11].d[  2] =        -1.445623617843;
  BAS[ATNO][ 11].a[  3] =         2.441000000000;     BAS[ATNO][ 11].d[  3] =         2.173336078568;
  BAS[ATNO][ 11].a[  4] =         0.833900000000;     BAS[ATNO][ 11].d[  4] =        -1.428266041040;
  BAS[ATNO][ 11].a[  5] =         0.266200000000;     BAS[ATNO][ 11].d[  5] =         0.497941164043;
  BAS[ATNO][ 11].a[  6] =        22.222000000000;     BAS[ATNO][ 11].d[  6] =         0.346164121009;
  BAS[ATNO][ 11].a[  7] =        65.622000000000;     BAS[ATNO][ 11].d[  7] =         0.010685271922;
  BAS[ATNO][ 11].a[  8] =       193.780000000000;     BAS[ATNO][ 11].d[  8] =         0.013783980832;

  // Basis function  13 L = p
  InitBFNGauss(BAS[ATNO][ 12]);
  BAS[ATNO][ 12].l  = 1;
  BAS[ATNO][ 12].ng = 9;
  BAS[ATNO][ 12].a[  0] =        99.680000000000;     BAS[ATNO][ 12].d[  0] =        -0.071870419517;
  BAS[ATNO][ 12].a[  1] =        23.150000000000;     BAS[ATNO][ 12].d[  1] =        -0.503279015986;
  BAS[ATNO][ 12].a[  2] =         7.108000000000;     BAS[ATNO][ 12].d[  2] =        -1.898217526987;
  BAS[ATNO][ 12].a[  3] =         2.441000000000;     BAS[ATNO][ 12].d[  3] =         1.200688698225;
  BAS[ATNO][ 12].a[  4] =         0.833900000000;     BAS[ATNO][ 12].d[  4] =        -0.552303328963;
  BAS[ATNO][ 12].a[  5] =         0.266200000000;     BAS[ATNO][ 12].d[  5] =         0.170889241465;
  BAS[ATNO][ 12].a[  6] =        22.222000000000;     BAS[ATNO][ 12].d[  6] =         2.147586780482;
  BAS[ATNO][ 12].a[  7] =        65.622000000000;     BAS[ATNO][ 12].d[  7] =        -0.070360699662;
  BAS[ATNO][ 12].a[  8] =       193.780000000000;     BAS[ATNO][ 12].d[  8] =         0.070592336240;

  // Basis function  14 L = p
  InitBFNGauss(BAS[ATNO][ 13]);
  BAS[ATNO][ 13].l  = 1;
  BAS[ATNO][ 13].ng = 9;
  BAS[ATNO][ 13].a[  0] =        99.680000000000;     BAS[ATNO][ 13].d[  0] =        -0.038130410636;
  BAS[ATNO][ 13].a[  1] =        23.150000000000;     BAS[ATNO][ 13].d[  1] =        -0.267011597723;
  BAS[ATNO][ 13].a[  2] =         7.108000000000;     BAS[ATNO][ 13].d[  2] =        -1.007087676231;
  BAS[ATNO][ 13].a[  3] =         2.441000000000;     BAS[ATNO][ 13].d[  3] =         0.531039316110;
  BAS[ATNO][ 13].a[  4] =         0.833900000000;     BAS[ATNO][ 13].d[  4] =        -0.237192649187;
  BAS[ATNO][ 13].a[  5] =         0.266200000000;     BAS[ATNO][ 13].d[  5] =         0.073451975283;
  BAS[ATNO][ 13].a[  6] =        22.222000000000;     BAS[ATNO][ 13].d[  6] =         1.992541706220;
  BAS[ATNO][ 13].a[  7] =        65.622000000000;     BAS[ATNO][ 13].d[  7] =        -1.712536273295;
  BAS[ATNO][ 13].a[  8] =       193.780000000000;     BAS[ATNO][ 13].d[  8] =         0.167872037645;

  // Basis function  15 L = p
  InitBFNGauss(BAS[ATNO][ 14]);
  BAS[ATNO][ 14].l  = 1;
  BAS[ATNO][ 14].ng = 9;
  BAS[ATNO][ 14].a[  0] =        99.680000000000;     BAS[ATNO][ 14].d[  0] =         0.017771812921;
  BAS[ATNO][ 14].a[  1] =        23.150000000000;     BAS[ATNO][ 14].d[  1] =         0.124448703364;
  BAS[ATNO][ 14].a[  2] =         7.108000000000;     BAS[ATNO][ 14].d[  2] =         0.469383189905;
  BAS[ATNO][ 14].a[  3] =         2.441000000000;     BAS[ATNO][ 14].d[  3] =        -0.246413051446;
  BAS[ATNO][ 14].a[  4] =         0.833900000000;     BAS[ATNO][ 14].d[  4] =         0.111071453432;
  BAS[ATNO][ 14].a[  5] =         0.266200000000;     BAS[ATNO][ 14].d[  5] =        -0.034570999680;
  BAS[ATNO][ 14].a[  6] =        22.222000000000;     BAS[ATNO][ 14].d[  6] =        -1.044295368496;
  BAS[ATNO][ 14].a[  7] =        65.622000000000;     BAS[ATNO][ 14].d[  7] =         1.603714277822;
  BAS[ATNO][ 14].a[  8] =       193.780000000000;     BAS[ATNO][ 14].d[  8] =        -1.598618879851;

  // Basis function  16 L = d
  InitBFNGauss(BAS[ATNO][ 15]);
  BAS[ATNO][ 15].l  = 2;
  BAS[ATNO][ 15].ng = 5;
  BAS[ATNO][ 15].a[  0] =         6.471000000000;     BAS[ATNO][ 15].d[  0] =         0.057214516112;
  BAS[ATNO][ 15].a[  1] =         2.213000000000;     BAS[ATNO][ 15].d[  1] =         0.334342058174;
  BAS[ATNO][ 15].a[  2] =         0.747000000000;     BAS[ATNO][ 15].d[  2] =         0.737504824417;
  BAS[ATNO][ 15].a[  3] =        23.613000000000;     BAS[ATNO][ 15].d[  3] =         0.005979081864;
  BAS[ATNO][ 15].a[  4] =        90.107000000000;     BAS[ATNO][ 15].d[  4] =         0.000194314154;

  // Basis function  17 L = d
  InitBFNGauss(BAS[ATNO][ 16]);
  BAS[ATNO][ 16].l  = 2;
  BAS[ATNO][ 16].ng = 5;
  BAS[ATNO][ 16].a[  0] =         6.471000000000;     BAS[ATNO][ 16].d[  0] =         0.051160566979;
  BAS[ATNO][ 16].a[  1] =         2.213000000000;     BAS[ATNO][ 16].d[  1] =         1.155851525846;
  BAS[ATNO][ 16].a[  2] =         0.747000000000;     BAS[ATNO][ 16].d[  2] =        -1.020450186461;
  BAS[ATNO][ 16].a[  3] =        23.613000000000;     BAS[ATNO][ 16].d[  3] =         0.021477980797;
  BAS[ATNO][ 16].a[  4] =        90.107000000000;     BAS[ATNO][ 16].d[  4] =        -0.000866267920;

  // Basis function  18 L = d
  InitBFNGauss(BAS[ATNO][ 17]);
  BAS[ATNO][ 17].l  = 2;
  BAS[ATNO][ 17].ng = 5;
  BAS[ATNO][ 17].a[  0] =         6.471000000000;     BAS[ATNO][ 17].d[  0] =         1.361626460409;
  BAS[ATNO][ 17].a[  1] =         2.213000000000;     BAS[ATNO][ 17].d[  1] =        -1.180165623030;
  BAS[ATNO][ 17].a[  2] =         0.747000000000;     BAS[ATNO][ 17].d[  2] =         0.453041980070;
  BAS[ATNO][ 17].a[  3] =        23.613000000000;     BAS[ATNO][ 17].d[  3] =        -0.030592779519;
  BAS[ATNO][ 17].a[  4] =        90.107000000000;     BAS[ATNO][ 17].d[  4] =         0.011238200530;

  // Basis function  19 L = d
  InitBFNGauss(BAS[ATNO][ 18]);
  BAS[ATNO][ 18].l  = 2;
  BAS[ATNO][ 18].ng = 5;
  BAS[ATNO][ 18].a[  0] =         6.471000000000;     BAS[ATNO][ 18].d[  0] =        -0.876580960698;
  BAS[ATNO][ 18].a[  1] =         2.213000000000;     BAS[ATNO][ 18].d[  1] =         0.458802703436;
  BAS[ATNO][ 18].a[  2] =         0.747000000000;     BAS[ATNO][ 18].d[  2] =        -0.155655108716;
  BAS[ATNO][ 18].a[  3] =        23.613000000000;     BAS[ATNO][ 18].d[  3] =         1.248170359480;
  BAS[ATNO][ 18].a[  4] =        90.107000000000;     BAS[ATNO][ 18].d[  4] =        -0.065320579821;

  // Basis function  20 L = d
  InitBFNGauss(BAS[ATNO][ 19]);
  BAS[ATNO][ 19].l  = 2;
  BAS[ATNO][ 19].ng = 5;
  BAS[ATNO][ 19].a[  0] =         6.471000000000;     BAS[ATNO][ 19].d[  0] =         0.306138328890;
  BAS[ATNO][ 19].a[  1] =         2.213000000000;     BAS[ATNO][ 19].d[  1] =        -0.153718783874;
  BAS[ATNO][ 19].a[  2] =         0.747000000000;     BAS[ATNO][ 19].d[  2] =         0.052670384066;
  BAS[ATNO][ 19].a[  3] =        23.613000000000;     BAS[ATNO][ 19].d[  3] =        -0.656228034573;
  BAS[ATNO][ 19].a[  4] =        90.107000000000;     BAS[ATNO][ 19].d[  4] =         1.170268598317;

  // Basis function  21 L = f
  InitBFNGauss(BAS[ATNO][ 20]);
  BAS[ATNO][ 20].l  = 3;
  BAS[ATNO][ 20].ng = 3;
  BAS[ATNO][ 20].a[  0] =         4.657000000000;     BAS[ATNO][ 20].d[  0] =        -0.021568908937;
  BAS[ATNO][ 20].a[  1] =         1.524000000000;     BAS[ATNO][ 20].d[  1] =         1.010818838918;
  BAS[ATNO][ 20].a[  2] =        28.830000000000;     BAS[ATNO][ 20].d[  2] =         0.003086616482;

  // Basis function  22 L = f
  InitBFNGauss(BAS[ATNO][ 21]);
  BAS[ATNO][ 21].l  = 3;
  BAS[ATNO][ 21].ng = 3;
  BAS[ATNO][ 21].a[  0] =         4.657000000000;     BAS[ATNO][ 21].d[  0] =         1.165433499937;
  BAS[ATNO][ 21].a[  1] =         1.524000000000;     BAS[ATNO][ 21].d[  1] =        -0.579484808706;
  BAS[ATNO][ 21].a[  2] =        28.830000000000;     BAS[ATNO][ 21].d[  2] =        -0.003856363342;

  // Basis function  23 L = f
  InitBFNGauss(BAS[ATNO][ 22]);
  BAS[ATNO][ 22].l  = 3;
  BAS[ATNO][ 22].ng = 3;
  BAS[ATNO][ 22].a[  0] =         4.657000000000;     BAS[ATNO][ 22].d[  0] =        -0.243126946066;
  BAS[ATNO][ 22].a[  1] =         1.524000000000;     BAS[ATNO][ 22].d[  1] =         0.097100685969;
  BAS[ATNO][ 22].a[  2] =        28.830000000000;     BAS[ATNO][ 22].d[  2] =         1.022628015980;

  // Basis function  24 L = g
  InitBFNGauss(BAS[ATNO][ 23]);
  BAS[ATNO][ 23].l  = 4;
  BAS[ATNO][ 23].ng = 1;
  BAS[ATNO][ 23].a[  0] =         2.983000000000;     BAS[ATNO][ 23].d[  0] =         1.000000000000;

-------
TIMINGS
-------

Total SCF time: 0 days 0 hours 0 min 1 sec 

Total time                  ....       1.520 sec
Sum of individual times     ....       1.344 sec  ( 88.4%)

Fock matrix formation       ....       0.938 sec  ( 61.7%)
  XC integration            ....       0.026 sec  (  2.8% of F)
    Basis function eval.    ....       0.003 sec  ( 12.7% of XC)
    Density eval.           ....       0.002 sec  (  7.0% of XC)
    XC-Functional eval.     ....       0.001 sec  (  5.2% of XC)
    XC-Potential eval.      ....       0.003 sec  ( 11.1% of XC)
Diagonalization             ....       0.003 sec  (  0.2%)
Density matrix formation    ....       0.001 sec  (  0.1%)
Population analysis         ....       0.001 sec  (  0.1%)
Initial guess               ....       0.074 sec  (  4.8%)
Orbital Transformation      ....       0.000 sec  (  0.0%)
Orbital Orthonormalization  ....       0.000 sec  (  0.0%)
DIIS solution               ....       0.000 sec  (  0.0%)
SOSCF solution              ....       0.001 sec  (  0.1%)
Grid generation             ....       0.326 sec  ( 21.4%)

-------------------------   --------------------
FINAL SINGLE POINT ENERGY       -93.213442612599
-------------------------   --------------------


                            ***************************************
                            *     ORCA property calculations      *
                            ***************************************

                                    ---------------------
                                    Active property flags
                                    ---------------------
   (+) Dipole Moment


------------------------------------------------------------------------------
                       ORCA ELECTRIC PROPERTIES CALCULATION
------------------------------------------------------------------------------

Dipole Moment Calculation                       ... on
Quadrupole Moment Calculation                   ... off
Polarizability Calculation                      ... off
GBWName                                         ... Ne_cc-pcvqz_2192.575824_.gbw
Electron density file                           ... Ne_cc-pcvqz_2192.575824_.scfp
The origin for moment calculation is the CENTER OF MASS  = ( 0.000000,  0.000000  0.000000)

-------------
DIPOLE MOMENT
-------------
                                X             Y             Z
Electronic contribution:      0.00000       0.00000      -0.00000
Nuclear contribution   :      0.00000       0.00000       0.00000
                        -----------------------------------------
Total Dipole Moment    :      0.00000       0.00000      -0.00000
                        -----------------------------------------
Magnitude (a.u.)       :      0.00000
Magnitude (Debye)      :      0.00000



--------------------
Rotational spectrum 
--------------------
 
Rotational constants in cm-1:     0.000000     0.000000     0.000000 
Rotational constants in MHz :     0.000000     0.000000     0.000000 

 Dipole components along the rotational axes: 
x,y,z [a.u.] :     0.000000     0.000000    -0.000000 
x,y,z [Debye]:     0.000000     0.000000    -0.000000 

 

Timings for individual modules:

Sum of individual times         ...        2.595 sec (=   0.043 min)
GTO integral calculation        ...        0.490 sec (=   0.008 min)  18.9 %
Relativistic integrals          ...        0.336 sec (=   0.006 min)  12.9 %
SCF iterations                  ...        1.769 sec (=   0.029 min)  68.2 %
                             ****ORCA TERMINATED NORMALLY****
TOTAL RUN TIME: 0 days 0 hours 0 minutes 2 seconds 907 msec
