
                                 *****************
                                 * O   R   C   A *
                                 *****************

           --- An Ab Initio, DFT and Semiempirical electronic structure package ---

                  #######################################################
                  #                        -***-                        #
                  #          Department of theory and spectroscopy      #
                  #               Directorship: Frank Neese             #
                  #        Max Planck Institute fuer Kohlenforschung    #
                  #                Kaiser Wilhelm Platz 1               #
                  #                 D-45470 Muelheim/Ruhr               #
                  #                      Germany                        #
                  #                                                     #
                  #                  All rights reserved                #
                  #                        -***-                        #
                  #######################################################


                         Program Version 4.2.1 -  RELEASE  -


 With contributions from (in alphabetic order):
   Daniel Aravena         : Magnetic Suceptibility
   Michael Atanasov       : Ab Initio Ligand Field Theory (pilot matlab implementation)
   Alexander A. Auer      : GIAO ZORA, VPT2
   Ute Becker             : Parallelization
   Giovanni Bistoni       : ED, misc. LED, open-shell LED, HFLD
   Martin Brehm           : Molecular dynamics
   Dmytro Bykov           : SCF Hessian
   Vijay G. Chilkuri      : MRCI spin determinant printing, contributions to CSF-ICE
   Dipayan Datta          : RHF DLPNO-CCSD density
   Achintya Kumar Dutta   : EOM-CC, STEOM-CC
   Dmitry Ganyushin       : Spin-Orbit,Spin-Spin,Magnetic field MRCI
   Miquel Garcia          : C-PCM Hessian, Gaussian charge scheme
   Yang Guo               : DLPNO-NEVPT2, CIM, IAO-localization
   Andreas Hansen         : Spin unrestricted coupled pair/coupled cluster methods
   Benjamin Helmich-Paris : CASSCF linear response (MC-RPA)
   Lee Huntington         : MR-EOM, pCC
   Robert Izsak           : Overlap fitted RIJCOSX, COSX-SCS-MP3, EOM
   Christian Kollmar      : KDIIS, OOCD, Brueckner-CCSD(T), CCSD density
   Simone Kossmann        : Meta GGA functionals, TD-DFT gradient, OOMP2, MP2 Hessian
   Martin Krupicka        : AUTO-CI
   Lucas Lang             : DCDCAS
   Dagmar Lenk            : GEPOL surface, SMD
   Dimitrios Liakos       : Extrapolation schemes; Compound Job, initial MDCI parallelization
   Dimitrios Manganas     : Further ROCIS development; embedding schemes
   Dimitrios Pantazis     : SARC Basis sets
   Taras Petrenko         : DFT Hessian,TD-DFT gradient, ASA, ECA, R-Raman, ABS, FL, XAS/XES, NRVS
   Peter Pinski           : DLPNO-MP2, DLPNO-MP2 Gradient
   Christoph Reimann      : Effective Core Potentials
   Marius Retegan         : Local ZFS, SOC
   Christoph Riplinger    : Optimizer, TS searches, QM/MM, DLPNO-CCSD(T), (RO)-DLPNO pert. Triples
   Tobias Risthaus        : Range-separated hybrids, TD-DFT gradient, RPA, STAB
   Michael Roemelt        : Original ROCIS implementation
   Masaaki Saitow         : Open-shell DLPNO-CCSD energy and density
   Barbara Sandhoefer     : DKH picture change effects
   Avijit Sen             : IP-ROCIS
   Kantharuban Sivalingam : CASSCF convergence, NEVPT2, FIC-MRCI
   Bernardo de Souza      : ESD, SOC TD-DFT
   Georgi Stoychev        : AutoAux, RI-MP2 NMR
   Willem Van den Heuvel  : Paramagnetic NMR
   Boris Wezisla          : Elementary symmetry handling
   Frank Wennmohs         : Technical directorship


 We gratefully acknowledge several colleagues who have allowed us to
 interface, adapt or use parts of their codes:
   Stefan Grimme, W. Hujo, H. Kruse,             : VdW corrections, initial TS optimization,
                  C. Bannwarth                     DFT functionals, gCP, sTDA/sTD-DF
   Ed Valeev, F. Pavosevic, A. Kumar             : LibInt (2-el integral package), F12 methods
   Garnet Chan, S. Sharma, J. Yang, R. Olivares  : DMRG
   Ulf Ekstrom                                   : XCFun DFT Library
   Mihaly Kallay                                 : mrcc  (arbitrary order and MRCC methods)
   Andreas Klamt, Michael Diedenhofen            : otool_cosmo (COSMO solvation model)
   Jiri Pittner, Ondrej Demel                    : Mk-CCSD
   Frank Weinhold                                : gennbo (NPA and NBO analysis)
   Christopher J. Cramer and Donald G. Truhlar   : smd solvation model
   Lars Goerigk                                  : TD-DFT with DH, B97 family of functionals
   V. Asgeirsson, H. Jonsson                     : NEB implementation
   FAccTs GmbH                                   : IRC, NEB, NEB-TS, Multilevel, MM, QM/MM, CI optimization
   S Lehtola, MJT Oliveira, MAL Marques          : LibXC Library


 Your calculation uses the libint2 library for the computation of 2-el integrals
 For citations please refer to: http://libint.valeyev.net

 Your ORCA version has been built with support for libXC version: 4.2.3
 For citations please refer to: https://tddft.org/programs/libxc/

 This ORCA versions uses:
   CBLAS   interface :  Fast vector & matrix operations
   LAPACKE interface :  Fast linear algebra routines
   SCALAPACK package :  Parallel linear algebra routines


----- Orbital basis set information -----
Your calculation utilizes the basis: cc-pCVDZ 
             H : cc-pVDZ. Obtained from the ccRepo (grant-hill.group.shef.ac.uk/ccrepo) Feb. 2017
                 T. H. Dunning, Jr., J. Chem. Phys. 90, 1007 (1989)
            He : cc-pVDZ. Obtained from the ccRepo (grant-hill.group.shef.ac.uk/ccrepo) Feb. 2017
                 D. E. Woon, T. H. Dunning, Jr., J. Chem. Phys. 100, 2975 (1994)
  Li-Be, Na-Mg : Obtained from the ccRepo (grant-hill.group.shef.ac.uk/ccrepo) Feb. 2017
                 B. P. Prascher, D. E. Woon, K. A. Peterson, T. H. Dunning, Jr., A. K. Wilson, Theor. Chem. Acc. 128, 69 (2011)
          B-Ne : Obtained from the ccRepo (grant-hill.group.shef.ac.uk/ccrepo) Feb. 2017
                 D. E. Woon, T. H. Dunning, Jr., J. Chem. Phys. 103, 4572 (1995)
                  K. A. Peterson, T. H. Dunning, Jr., J. Chem. Phys. 117, 10548 (2002)
         Al-Ar : Obtained from the EMSL Basis Set Exchange (bse.pnl.gov) Feb. 2017
                 K. A. Peterson, T. H. Dunning, Jr., J. Chem. Phys. 117, 10548 (2002)
            Ca : Obtained from the Peterson Research Group Website (tyr0.chem.wsu.edu/~kipeters) Feb. 2017
                 J. Koput, K. A. Peterson, J. Phys. Chem. 106, 9595 (2002)
         Ga-Kr : Obtained from the Peterson Research Group Website (tyr0.chem.wsu.edu/~kipeters) Feb. 2017
                 N. J. DeYonker, K. A. Peterson, A. K. Wilson, J. Phys. Chem. A 111, 11383 (2007)

================================================================================
                                        WARNINGS
                       Please study these warnings very carefully!
================================================================================


INFO   : the flag for use of LIBINT has been found!

================================================================================
                                       INPUT FILE
================================================================================
NAME = Ne_cc-pcvdz_274.071978_.inp
|  1> ! LDA cc-pcvdz nori grid5 finalgrid6 verytightscf
|  2> %Pal NProcs 18 End
|  3> 
|  4> % REL
|  5>   Method ZORA
|  6>   ModelPot 1, 0, 0, 0
|  7>   velit 274.071978
|  8> END
|  9> 
| 10> *xyz 8 1
| 11> Ne 0.0 0.0 0.0
| 12> **                         ****END OF INPUT****
================================================================================

                       ****************************
                       * Single Point Calculation *
                       ****************************

---------------------------------
CARTESIAN COORDINATES (ANGSTROEM)
---------------------------------
  Ne     0.000000    0.000000    0.000000

----------------------------
CARTESIAN COORDINATES (A.U.)
----------------------------
  NO LB      ZA    FRAG     MASS         X           Y           Z
   0 Ne   10.0000    0    20.179    0.000000    0.000000    0.000000

--------------------------------
INTERNAL COORDINATES (ANGSTROEM)
--------------------------------
 Ne     0   0   0     0.000000000000     0.00000000     0.00000000

---------------------------
INTERNAL COORDINATES (A.U.)
---------------------------
 Ne     0   0   0     0.000000000000     0.00000000     0.00000000

---------------------
BASIS SET INFORMATION
---------------------
There are 1 groups of distinct atoms

 Group   1 Type Ne  : 18s5p1d contracted to 4s3p1d pattern {8811/311/1}

Atom   0Ne   basis set group =>   1


           ************************************************************
           *        Program running with 18 parallel MPI-processes    *
           *              working on a common directory               *
           ************************************************************
------------------------------------------------------------------------------
                           ORCA GTO INTEGRAL CALCULATION
------------------------------------------------------------------------------

                         BASIS SET STATISTICS AND STARTUP INFO

 # of primitive gaussian shells          ...   24
 # of primitive gaussian functions       ...   38
 # of contracted shells                  ...    8
 # of contracted basis functions         ...   18
 Highest angular momentum                ...    2
 Maximum contraction depth               ...    8
 Integral package used                   ... LIBINT
 Integral threshhold            Thresh   ...  1.000e-12
 Primitive cut-off              TCut     ...  1.000e-14


------------------------------ INTEGRAL EVALUATION ----------------------------


 * One electron integrals 
 Pre-screening matrix                    ... done
 Shell pair data                         ... done (   0.000 sec)



           ************************************************************
           *        Program running with 18 parallel MPI-processes    *
           *              working on a common directory               *
           ************************************************************
------------------------------------------------------------------------------
                          ORCA RELATIVISTIC HAMILTONIAN
------------------------------------------------------------------------------

Relativistic Method            ... ZORA(MP)
Treatment of potential         ... Van Wuellen
Nucleus model                  ... Point Nucleus
Speed of light used            ... 274.07197800000000


            *************************************************
            *         ZERO ORDER REGULAR APPROXIMATION      *
            *                     ZORA(MP)                  *
            *            Programmed by FN according to      *
            *                   C. van Wuellen              *
            *       J. Chem. Phys. (1998) vol 109, 392-399  *
            *************************************************

Terms included in model potential: +V(e,N)
Basis function cutoff value   ... 1.000000e-12
Loading the fitted atomic densities  (DKH4)  ... done
Calculating the cutoffs                      ... done
Number of fit functions                      ... 11
Setting up the integration grid ... done


           ************************************************************
           *        Program running with 18 parallel MPI-processes    *
           *              working on a common directory               *
           ************************************************************
-------------------------------------------------------------------------------
                                 ORCA SCF
-------------------------------------------------------------------------------

------------
SCF SETTINGS
------------
Hamiltonian:
 Density Functional     Method          .... DFT(GTOs)
 Exchange Functional    Exchange        .... Slater
   X-Alpha parameter    XAlpha          ....  0.666667
 Correlation Functional Correlation     .... VWN-5
 Gradients option       PostSCFGGA      .... off
   Density functional embedding theory  .... OFF

Relativistic Settings:
 Scalar relativistic method             .... ZORA
 Speed of light used       Velit        ....       274.071978
Orbital energies will be scaled


General Settings:
 Integral files         IntName         .... Ne_cc-pcvdz_274.071978_
 Hartree-Fock type      HFTyp           .... RHF
 Total Charge           Charge          ....    8
 Multiplicity           Mult            ....    1
 Number of Electrons    NEL             ....    2
 Basis Dimension        Dim             ....   18
 Nuclear Repulsion      ENuc            ....      0.0000000000 Eh

Convergence Acceleration:
 DIIS                   CNVDIIS         .... on
   Start iteration      DIISMaxIt       ....    12
   Startup error        DIISStart       ....  0.200000
   # of expansion vecs  DIISMaxEq       ....     5
   Bias factor          DIISBfac        ....   1.050
   Max. coefficient     DIISMaxC        ....  10.000
 Newton-Raphson         CNVNR           .... off
 SOSCF                  CNVSOSCF        .... on
   Start iteration      SOSCFMaxIt      ....   150
   Startup grad/error   SOSCFStart      ....  0.003300
 Level Shifting         CNVShift        .... on
   Level shift para.    LevelShift      ....    0.2500
   Turn off err/grad.   ShiftErr        ....    0.0010
 Zerner damping         CNVZerner       .... off
 Static damping         CNVDamp         .... on
   Fraction old density DampFac         ....    0.7000
   Max. Damping (<1)    DampMax         ....    0.9800
   Min. Damping (>=0)   DampMin         ....    0.0000
   Turn off err/grad.   DampErr         ....    0.1000
 Fernandez-Rico         CNVRico         .... off

SCF Procedure:
 Maximum # iterations   MaxIter         ....   125
 SCF integral mode      SCFMode         .... Direct
   Integral package                     .... LIBINT
 Reset frequency        DirectResetFreq ....    20
 Integral Threshold     Thresh          ....  1.000e-12 Eh
 Primitive CutOff       TCut            ....  1.000e-14 Eh

Convergence Tolerance:
 Convergence Check Mode ConvCheckMode   .... Total+1el-Energy
 Convergence forced     ConvForced      .... 0
 Energy Change          TolE            ....  1.000e-09 Eh
 1-El. energy change                    ....  1.000e-06 Eh
 Orbital Gradient       TolG            ....  2.000e-06
 Orbital Rotation angle TolX            ....  2.000e-06
 DIIS Error             TolErr          ....  1.000e-08


Diagonalization of the overlap matrix:
Smallest eigenvalue                        ... 5.809e-02
Time for diagonalization                   ...    0.001 sec
Threshold for overlap eigenvalues          ... 1.000e-08
Number of eigenvalues below threshold      ... 0
Time for construction of square roots      ...    0.001 sec
Total time needed                          ...    0.002 sec

-------------------
DFT GRID GENERATION
-------------------

General Integration Accuracy     IntAcc      ...  5.010
Radial Grid Type                 RadialGrid  ... Gauss-Chebyshev
Angular Grid (max. acc.)         AngularGrid ... Lebedev-434
Angular grid pruning method      GridPruning ... 3 (G Style)
Weight generation scheme         WeightScheme... Becke
Basis function cutoff            BFCut       ...    1.0000e-12
Integration weight cutoff        WCut        ...    1.0000e-14
Grids for H and He will be reduced by one unit

# of grid points (after initial pruning)     ...  10818 (   0.0 sec)
# of grid points (after weights+screening)   ...  10818 (   0.0 sec)
Grid point division into batches done        ...    0.1 sec
Reduced shell lists constructed in    0.1 sec

Total number of grid points                  ...    10818
Total number of batches                      ...      170
Average number of points per batch           ...       63
Average number of grid points per atom       ...    10818
Average number of shells per batch           ...     0.00 ( 0.00%)
Average number of basis functions per batch  ...     0.00 ( 0.00%)
Average number of large shells per batch     ...     0.00 ( -nan%)
Average number of large basis fcns per batch ...     0.00 ( -nan%)
Maximum spatial batch extension              ...  16.29, 16.29, 16.29 au
Average spatial batch extension              ...   0.85,  0.86,  0.85 au

Time for grid setup =    0.122 sec

------------------------------
INITIAL GUESS: MODEL POTENTIAL
------------------------------
Loading ZORA relativistic densities                ... done
Calculating cut-offs                               ... done
Setting up the integral package                    ... done
Initializing the effective Hamiltonian             ... done
Starting the Coulomb interaction                   ... done (   0.0 sec)
Reading the grid                                   ... done
Mapping shells                                     ... done
Starting the XC term evaluation                    ... done (   0.0 sec)
  promolecular density results
     # of electrons  =     10.000000324
     EX              =    -11.053709298
     EC              =     -0.746638772
     EX+EC           =    -11.800348070
Transforming the Hamiltonian                       ... done (   0.0 sec)
Diagonalizing the Hamiltonian                      ... done (   0.0 sec)
Back transforming the eigenvectors                 ... done (   0.0 sec)
Now organizing SCF variables                       ... done
                      ------------------
                      INITIAL GUESS DONE (   0.2 sec)
                      ------------------
--------------
SCF ITERATIONS
--------------
ITER       Energy         Delta-E        Max-DP      RMS-DP      [F,P]     Damp
               ***  Starting incremental Fock matrix formation  ***
  0    -93.2599526546   0.000000000000 0.00859309  0.00076002  0.6912204 0.7000
  1    -93.2632301756  -0.003277520951 0.00574101  0.00051960  0.4789325 0.7000
  2    -93.2654775241  -0.002247348546 0.00392335  0.00035294  0.3308304 0.7000
  3    -93.2670286734  -0.001551149278 0.00272228  0.00023976  0.2285666 0.7000
                               ***Turning on DIIS***
  4    -93.2681042006  -0.001075527208 0.00188920  0.00016289  0.1579439 0.7000
  5    -93.2688522669  -0.000748066236 0.00129507  0.00010592  0.1091614 0.7000
  6    -93.2693736635  -0.000521396690 0.00300118  0.00024125  0.0760994 0.0000
                      *** Initiating the SOSCF procedure ***
                           *** Shutting down DIIS ***
                      *** Re-Reading the Fockian *** 
                      *** Removing any level shift *** 
ITER      Energy       Delta-E        Grad      Rot      Max-DP    RMS-DP
  7    -93.27058370  -0.0012100384  0.000276  0.000276  0.000034  0.000002
               *** Restarting incremental Fock matrix formation ***
  8    -93.27058370  -0.0000000027  0.000007  0.000000  0.000001  0.000000
                 **** Energy Check signals convergence ****
              ***Rediagonalizing the Fockian in SOSCF/NRSCF***

               *****************************************************
               *                     SUCCESS                       *
               *           SCF CONVERGED AFTER   9 CYCLES          *
               *****************************************************

Setting up the final grid:

General Integration Accuracy     IntAcc      ...  5.340
Radial Grid Type                 RadialGrid  ... Gauss-Chebyshev
Angular Grid (max. acc.)         AngularGrid ... Lebedev-590
Angular grid pruning method      GridPruning ... 3 (G Style)
Weight generation scheme         WeightScheme... Becke
Basis function cutoff            BFCut       ...    1.0000e-12
Integration weight cutoff        WCut        ...    1.0000e-14
Grids for H and He will be reduced by one unit

# of grid points (after initial pruning)     ...  16840 (   0.0 sec)
# of grid points (after weights+screening)   ...  16840 (   0.0 sec)
Grid point division into batches done        ...    0.2 sec
Reduced shell lists constructed in    0.2 sec

Total number of grid points                  ...    16840
Total number of batches                      ...      264
Average number of points per batch           ...       63
Average number of grid points per atom       ...    16840
Average number of shells per batch           ...     0.00 ( 0.00%)
Average number of basis functions per batch  ...     0.00 ( 0.00%)
Average number of large shells per batch     ...     0.00 ( -nan%)
Average number of large basis fcns per batch ...     0.00 ( -nan%)
Maximum spatial batch extension              ...  16.63, 16.63, 16.63 au
Average spatial batch extension              ...   0.74,  0.74,  0.69 au

Final grid set up in    0.2 sec
Final integration                            ... done (   0.0 sec)
Change in XC energy                          ...    -0.000003565
Integrated number of electrons               ...     1.999999934
Previous integrated no of electrons          ...     1.999999195

----------------
TOTAL SCF ENERGY
----------------

Total Energy       :          -93.27058727 Eh           -2538.02171 eV

Components:
Nuclear Repulsion  :            0.00000000 Eh               0.00000 eV
Electronic Energy  :          -93.27058727 Eh           -2538.02171 eV
One Electron Energy:          -99.91551552 Eh           -2718.83940 eV
Two Electron Energy:            6.64492825 Eh             180.81769 eV

Virial components:
Potential Energy   :         -186.39427979 Eh           -5072.04621 eV
Kinetic Energy     :           93.12369252 Eh            2534.02450 eV
Virial Ratio       :            2.00157742


DFT components:
N(Alpha)           :        0.999999967139 electrons
N(Beta)            :        0.999999967139 electrons
N(Total)           :        1.999999934279 electrons
E(X)               :       -5.149817804069 Eh       
E(C)               :       -0.202714336348 Eh       
E(XC)              :       -5.352532140416 Eh       
DFET-embed. en.    :        0.000000000000 Eh       

---------------
SCF CONVERGENCE
---------------

  Last Energy change         ...   -1.6769e-12  Tolerance :   1.0000e-09
  Last MAX-Density change    ...    4.2963e-08  Tolerance :   1.0000e-08
  Last RMS-Density change    ...    2.7455e-09  Tolerance :   1.0000e-09
  Last Orbital Gradient      ...    3.6771e-07  Tolerance :   2.0000e-06
  Last Orbital Rotation      ...    4.3162e-09  Tolerance :   2.0000e-06

             **** THE GBW FILE WAS UPDATED (Ne_cc-pcvdz_274.071978_.gbw) ****
             **** DENSITY FILE WAS UPDATED (Ne_cc-pcvdz_274.071978_.scfp) ****
             **** ENERGY FILE WAS UPDATED (Ne_cc-pcvdz_274.071978_.en.tmp) ****
             **** THE GBW FILE WAS UPDATED (Ne_cc-pcvdz_274.071978_.gbw) ****
             **** DENSITY FILE WAS UPDATED (Ne_cc-pcvdz_274.071978_.scfp) ****
----------------
ORBITAL ENERGIES
----------------

  NO   OCC          E(Eh)            E(eV) 
   0   2.0000     -41.504071     -1129.3832 
   1   0.0000      -9.020764      -245.4675 
   2   0.0000      -8.449644      -229.9265 
   3   0.0000      -8.449644      -229.9265 
   4   0.0000      -8.449644      -229.9265 
   5   0.0000      -3.790468      -103.1439 
   6   0.0000      -3.552101       -96.6576 
   7   0.0000      -3.552101       -96.6576 
   8   0.0000      -3.552101       -96.6576 
   9   0.0000      -2.510850       -68.3237 
  10   0.0000      -2.510850       -68.3237 
  11   0.0000      -2.510850       -68.3237 
  12   0.0000      -2.510850       -68.3237 
  13   0.0000      -2.510850       -68.3237 
  14   0.0000      39.413030      1072.4831 
  15   0.0000      46.053453      1253.1782 
  16   0.0000      46.053453      1253.1782 
  17   0.0000      46.053453      1253.1782 

                    ********************************
                    * MULLIKEN POPULATION ANALYSIS *
                    ********************************

-----------------------
MULLIKEN ATOMIC CHARGES
-----------------------
   0 Ne:    8.000000
Sum of atomic charges:    8.0000000

--------------------------------
MULLIKEN REDUCED ORBITAL CHARGES
--------------------------------
  0 Nes       :     2.000000  s :     2.000000
      pz      :     0.000000  p :     0.000000
      px      :     0.000000
      py      :     0.000000
      dz2     :     0.000000  d :     0.000000
      dxz     :     0.000000
      dyz     :     0.000000
      dx2y2   :     0.000000
      dxy     :     0.000000


                     *******************************
                     * LOEWDIN POPULATION ANALYSIS *
                     *******************************

----------------------
LOEWDIN ATOMIC CHARGES
----------------------
   0 Ne:    8.000000

-------------------------------
LOEWDIN REDUCED ORBITAL CHARGES
-------------------------------
  0 Nes       :     2.000000  s :     2.000000
      pz      :     0.000000  p :     0.000000
      px      :     0.000000
      py      :     0.000000
      dz2     :     0.000000  d :     0.000000
      dxz     :     0.000000
      dyz     :     0.000000
      dx2y2   :     0.000000
      dxy     :     0.000000


                      *****************************
                      * MAYER POPULATION ANALYSIS *
                      *****************************

  NA   - Mulliken gross atomic population
  ZA   - Total nuclear charge
  QA   - Mulliken gross atomic charge
  VA   - Mayer's total valence
  BVA  - Mayer's bonded valence
  FA   - Mayer's free valence

  ATOM       NA         ZA         QA         VA         BVA        FA
  0 Ne     2.0000    10.0000     8.0000     0.0000     0.0000     0.0000

  Mayer bond orders larger than 0.100000


--------------------------
ATOM BASIS FOR ELEMENT Ne
--------------------------
 NewGTO Ne
 S 18
    1      17880.000000000000         0.000738649804
    2       2683.000000000000         0.005681998559
    3        611.500000000000         0.028908431280
    4        173.500000000000         0.108635568712
    5         56.640000000000         0.291163141581
    6         20.420000000000         0.448718746150
    7          7.810000000000         0.258253190090
    8          1.653000000000         0.015076262866
    9      17880.000000000000         0.000002310853
   10       2683.000000000000         0.000018231553
   11        611.500000000000         0.000090512877
   12        173.500000000000         0.000371657668
   13         56.640000000000         0.001023868980
   14         20.420000000000         0.002354208085
   15          7.810000000000         0.001438075896
   16          1.653000000000        -0.007618424641
   17          0.486900000000        -0.001187450107
   18         12.854000000000        -0.002751837951
 S 18
    1      17880.000000000000        -0.000094916751
    2       2683.000000000000        -0.000730138751
    3        611.500000000000        -0.003714743268
    4        173.500000000000        -0.013959707591
    5         56.640000000000        -0.037414562892
    6         20.420000000000        -0.057660511758
    7          7.810000000000        -0.033185622913
    8          1.653000000000        -0.001937304915
    9      17880.000000000000         0.000323209062
   10       2683.000000000000         0.002549969167
   11        611.500000000000         0.012659647958
   12        173.500000000000         0.051982164387
   13         56.640000000000         0.143204163814
   14         20.420000000000         0.329272989878
   15          7.810000000000         0.201137509006
   16          1.653000000000        -1.065556386347
   17          0.486900000000        -0.051530232623
   18         12.854000000000        -0.079544267617
 S 18
    1      17880.000000000000        -0.000322455184
    2       2683.000000000000        -0.002480458099
    3        611.500000000000        -0.012619882203
    4        173.500000000000        -0.047424506259
    5         56.640000000000        -0.127106328012
    6         20.420000000000        -0.195886717747
    7          7.810000000000        -0.112739595099
    8          1.653000000000        -0.006581493807
    9      17880.000000000000         0.000419209885
   10       2683.000000000000         0.003307371013
   11        611.500000000000         0.016419866258
   12        173.500000000000         0.067422110776
   13         56.640000000000         0.185739226332
   14         20.420000000000         0.427074945052
   15          7.810000000000         0.260880160982
   16          1.653000000000        -1.382052124340
   17          0.486900000000         1.605689528896
   18         12.854000000000        -0.153656417836
 S 18
    1      17880.000000000000        -0.002070472754
    2       2683.000000000000        -0.015926929302
    3        611.500000000000        -0.081031794791
    4        173.500000000000        -0.304510992855
    5         56.640000000000        -0.816145010120
    6         20.420000000000        -1.257781337394
    7          7.810000000000        -0.723896751819
    8          1.653000000000        -0.042259527228
    9      17880.000000000000         0.000200718740
   10       2683.000000000000         0.001583577504
   11        611.500000000000         0.007861872986
   12        173.500000000000         0.032281875081
   13         56.640000000000         0.088932405603
   14         20.420000000000         0.204484550658
   15          7.810000000000         0.124910072839
   16          1.653000000000        -0.661730009933
   17          0.486900000000         0.339004136881
   18         12.854000000000         2.818679120961
 P 5
    1         28.390000000000         0.067354234527
    2          6.270000000000         0.351014546465
    3          1.695000000000         0.743508206007
    4          0.431700000000        -0.045939412093
    5         40.184000000000         0.012779793218
 P 5
    1         28.390000000000         0.033700065958
    2          6.270000000000         0.175626869656
    3          1.695000000000         0.372007428464
    4          0.431700000000        -1.141144022860
    5         40.184000000000         0.004984728340
 P 5
    1         28.390000000000        -0.024414268608
    2          6.270000000000        -0.127234218945
    3          1.695000000000        -0.269503605544
    4          0.431700000000         0.157486366978
    5         40.184000000000         1.046990947525
 D 1
    1          2.202000000000         1.000000000000
 end
  // -----------------------------------------------
  // The basis set
  // -----------------------------------------------
  BAS[ATNO] = new BFNGauss[NSH];
  // Basis function   1 L = s
  InitBFNGauss(BAS[ATNO][  0]);
  BAS[ATNO][  0].l  = 0;
  BAS[ATNO][  0].ng = 18;
  BAS[ATNO][  0].a[  0] =     17880.000000000000;     BAS[ATNO][  0].d[  0] =         0.000738649804;
  BAS[ATNO][  0].a[  1] =      2683.000000000000;     BAS[ATNO][  0].d[  1] =         0.005681998559;
  BAS[ATNO][  0].a[  2] =       611.500000000000;     BAS[ATNO][  0].d[  2] =         0.028908431280;
  BAS[ATNO][  0].a[  3] =       173.500000000000;     BAS[ATNO][  0].d[  3] =         0.108635568712;
  BAS[ATNO][  0].a[  4] =        56.640000000000;     BAS[ATNO][  0].d[  4] =         0.291163141581;
  BAS[ATNO][  0].a[  5] =        20.420000000000;     BAS[ATNO][  0].d[  5] =         0.448718746150;
  BAS[ATNO][  0].a[  6] =         7.810000000000;     BAS[ATNO][  0].d[  6] =         0.258253190090;
  BAS[ATNO][  0].a[  7] =         1.653000000000;     BAS[ATNO][  0].d[  7] =         0.015076262866;
  BAS[ATNO][  0].a[  8] =     17880.000000000000;     BAS[ATNO][  0].d[  8] =         0.000002310853;
  BAS[ATNO][  0].a[  9] =      2683.000000000000;     BAS[ATNO][  0].d[  9] =         0.000018231553;
  BAS[ATNO][  0].a[ 10] =       611.500000000000;     BAS[ATNO][  0].d[ 10] =         0.000090512877;
  BAS[ATNO][  0].a[ 11] =       173.500000000000;     BAS[ATNO][  0].d[ 11] =         0.000371657668;
  BAS[ATNO][  0].a[ 12] =        56.640000000000;     BAS[ATNO][  0].d[ 12] =         0.001023868980;
  BAS[ATNO][  0].a[ 13] =        20.420000000000;     BAS[ATNO][  0].d[ 13] =         0.002354208085;
  BAS[ATNO][  0].a[ 14] =         7.810000000000;     BAS[ATNO][  0].d[ 14] =         0.001438075896;
  BAS[ATNO][  0].a[ 15] =         1.653000000000;     BAS[ATNO][  0].d[ 15] =        -0.007618424641;
  BAS[ATNO][  0].a[ 16] =         0.486900000000;     BAS[ATNO][  0].d[ 16] =        -0.001187450107;
  BAS[ATNO][  0].a[ 17] =        12.854000000000;     BAS[ATNO][  0].d[ 17] =        -0.002751837951;

  // Basis function   2 L = s
  InitBFNGauss(BAS[ATNO][  1]);
  BAS[ATNO][  1].l  = 0;
  BAS[ATNO][  1].ng = 18;
  BAS[ATNO][  1].a[  0] =     17880.000000000000;     BAS[ATNO][  1].d[  0] =         0.000094916751;
  BAS[ATNO][  1].a[  1] =      2683.000000000000;     BAS[ATNO][  1].d[  1] =         0.000730138751;
  BAS[ATNO][  1].a[  2] =       611.500000000000;     BAS[ATNO][  1].d[  2] =         0.003714743268;
  BAS[ATNO][  1].a[  3] =       173.500000000000;     BAS[ATNO][  1].d[  3] =         0.013959707591;
  BAS[ATNO][  1].a[  4] =        56.640000000000;     BAS[ATNO][  1].d[  4] =         0.037414562892;
  BAS[ATNO][  1].a[  5] =        20.420000000000;     BAS[ATNO][  1].d[  5] =         0.057660511758;
  BAS[ATNO][  1].a[  6] =         7.810000000000;     BAS[ATNO][  1].d[  6] =         0.033185622913;
  BAS[ATNO][  1].a[  7] =         1.653000000000;     BAS[ATNO][  1].d[  7] =         0.001937304915;
  BAS[ATNO][  1].a[  8] =     17880.000000000000;     BAS[ATNO][  1].d[  8] =        -0.000323209062;
  BAS[ATNO][  1].a[  9] =      2683.000000000000;     BAS[ATNO][  1].d[  9] =        -0.002549969167;
  BAS[ATNO][  1].a[ 10] =       611.500000000000;     BAS[ATNO][  1].d[ 10] =        -0.012659647958;
  BAS[ATNO][  1].a[ 11] =       173.500000000000;     BAS[ATNO][  1].d[ 11] =        -0.051982164387;
  BAS[ATNO][  1].a[ 12] =        56.640000000000;     BAS[ATNO][  1].d[ 12] =        -0.143204163814;
  BAS[ATNO][  1].a[ 13] =        20.420000000000;     BAS[ATNO][  1].d[ 13] =        -0.329272989878;
  BAS[ATNO][  1].a[ 14] =         7.810000000000;     BAS[ATNO][  1].d[ 14] =        -0.201137509006;
  BAS[ATNO][  1].a[ 15] =         1.653000000000;     BAS[ATNO][  1].d[ 15] =         1.065556386347;
  BAS[ATNO][  1].a[ 16] =         0.486900000000;     BAS[ATNO][  1].d[ 16] =         0.051530232623;
  BAS[ATNO][  1].a[ 17] =        12.854000000000;     BAS[ATNO][  1].d[ 17] =         0.079544267617;

  // Basis function   3 L = s
  InitBFNGauss(BAS[ATNO][  2]);
  BAS[ATNO][  2].l  = 0;
  BAS[ATNO][  2].ng = 18;
  BAS[ATNO][  2].a[  0] =     17880.000000000000;     BAS[ATNO][  2].d[  0] =        -0.000322455184;
  BAS[ATNO][  2].a[  1] =      2683.000000000000;     BAS[ATNO][  2].d[  1] =        -0.002480458099;
  BAS[ATNO][  2].a[  2] =       611.500000000000;     BAS[ATNO][  2].d[  2] =        -0.012619882203;
  BAS[ATNO][  2].a[  3] =       173.500000000000;     BAS[ATNO][  2].d[  3] =        -0.047424506259;
  BAS[ATNO][  2].a[  4] =        56.640000000000;     BAS[ATNO][  2].d[  4] =        -0.127106328012;
  BAS[ATNO][  2].a[  5] =        20.420000000000;     BAS[ATNO][  2].d[  5] =        -0.195886717747;
  BAS[ATNO][  2].a[  6] =         7.810000000000;     BAS[ATNO][  2].d[  6] =        -0.112739595099;
  BAS[ATNO][  2].a[  7] =         1.653000000000;     BAS[ATNO][  2].d[  7] =        -0.006581493807;
  BAS[ATNO][  2].a[  8] =     17880.000000000000;     BAS[ATNO][  2].d[  8] =         0.000419209885;
  BAS[ATNO][  2].a[  9] =      2683.000000000000;     BAS[ATNO][  2].d[  9] =         0.003307371013;
  BAS[ATNO][  2].a[ 10] =       611.500000000000;     BAS[ATNO][  2].d[ 10] =         0.016419866258;
  BAS[ATNO][  2].a[ 11] =       173.500000000000;     BAS[ATNO][  2].d[ 11] =         0.067422110776;
  BAS[ATNO][  2].a[ 12] =        56.640000000000;     BAS[ATNO][  2].d[ 12] =         0.185739226332;
  BAS[ATNO][  2].a[ 13] =        20.420000000000;     BAS[ATNO][  2].d[ 13] =         0.427074945052;
  BAS[ATNO][  2].a[ 14] =         7.810000000000;     BAS[ATNO][  2].d[ 14] =         0.260880160982;
  BAS[ATNO][  2].a[ 15] =         1.653000000000;     BAS[ATNO][  2].d[ 15] =        -1.382052124340;
  BAS[ATNO][  2].a[ 16] =         0.486900000000;     BAS[ATNO][  2].d[ 16] =         1.605689528896;
  BAS[ATNO][  2].a[ 17] =        12.854000000000;     BAS[ATNO][  2].d[ 17] =        -0.153656417836;

  // Basis function   4 L = s
  InitBFNGauss(BAS[ATNO][  3]);
  BAS[ATNO][  3].l  = 0;
  BAS[ATNO][  3].ng = 18;
  BAS[ATNO][  3].a[  0] =     17880.000000000000;     BAS[ATNO][  3].d[  0] =        -0.002070472754;
  BAS[ATNO][  3].a[  1] =      2683.000000000000;     BAS[ATNO][  3].d[  1] =        -0.015926929302;
  BAS[ATNO][  3].a[  2] =       611.500000000000;     BAS[ATNO][  3].d[  2] =        -0.081031794791;
  BAS[ATNO][  3].a[  3] =       173.500000000000;     BAS[ATNO][  3].d[  3] =        -0.304510992855;
  BAS[ATNO][  3].a[  4] =        56.640000000000;     BAS[ATNO][  3].d[  4] =        -0.816145010120;
  BAS[ATNO][  3].a[  5] =        20.420000000000;     BAS[ATNO][  3].d[  5] =        -1.257781337394;
  BAS[ATNO][  3].a[  6] =         7.810000000000;     BAS[ATNO][  3].d[  6] =        -0.723896751819;
  BAS[ATNO][  3].a[  7] =         1.653000000000;     BAS[ATNO][  3].d[  7] =        -0.042259527228;
  BAS[ATNO][  3].a[  8] =     17880.000000000000;     BAS[ATNO][  3].d[  8] =         0.000200718740;
  BAS[ATNO][  3].a[  9] =      2683.000000000000;     BAS[ATNO][  3].d[  9] =         0.001583577504;
  BAS[ATNO][  3].a[ 10] =       611.500000000000;     BAS[ATNO][  3].d[ 10] =         0.007861872986;
  BAS[ATNO][  3].a[ 11] =       173.500000000000;     BAS[ATNO][  3].d[ 11] =         0.032281875081;
  BAS[ATNO][  3].a[ 12] =        56.640000000000;     BAS[ATNO][  3].d[ 12] =         0.088932405603;
  BAS[ATNO][  3].a[ 13] =        20.420000000000;     BAS[ATNO][  3].d[ 13] =         0.204484550658;
  BAS[ATNO][  3].a[ 14] =         7.810000000000;     BAS[ATNO][  3].d[ 14] =         0.124910072839;
  BAS[ATNO][  3].a[ 15] =         1.653000000000;     BAS[ATNO][  3].d[ 15] =        -0.661730009933;
  BAS[ATNO][  3].a[ 16] =         0.486900000000;     BAS[ATNO][  3].d[ 16] =         0.339004136881;
  BAS[ATNO][  3].a[ 17] =        12.854000000000;     BAS[ATNO][  3].d[ 17] =         2.818679120961;

  // Basis function   5 L = p
  InitBFNGauss(BAS[ATNO][  4]);
  BAS[ATNO][  4].l  = 1;
  BAS[ATNO][  4].ng = 5;
  BAS[ATNO][  4].a[  0] =        28.390000000000;     BAS[ATNO][  4].d[  0] =         0.067354234527;
  BAS[ATNO][  4].a[  1] =         6.270000000000;     BAS[ATNO][  4].d[  1] =         0.351014546465;
  BAS[ATNO][  4].a[  2] =         1.695000000000;     BAS[ATNO][  4].d[  2] =         0.743508206007;
  BAS[ATNO][  4].a[  3] =         0.431700000000;     BAS[ATNO][  4].d[  3] =        -0.045939412093;
  BAS[ATNO][  4].a[  4] =        40.184000000000;     BAS[ATNO][  4].d[  4] =         0.012779793218;

  // Basis function   6 L = p
  InitBFNGauss(BAS[ATNO][  5]);
  BAS[ATNO][  5].l  = 1;
  BAS[ATNO][  5].ng = 5;
  BAS[ATNO][  5].a[  0] =        28.390000000000;     BAS[ATNO][  5].d[  0] =        -0.033700065958;
  BAS[ATNO][  5].a[  1] =         6.270000000000;     BAS[ATNO][  5].d[  1] =        -0.175626869656;
  BAS[ATNO][  5].a[  2] =         1.695000000000;     BAS[ATNO][  5].d[  2] =        -0.372007428464;
  BAS[ATNO][  5].a[  3] =         0.431700000000;     BAS[ATNO][  5].d[  3] =         1.141144022860;
  BAS[ATNO][  5].a[  4] =        40.184000000000;     BAS[ATNO][  5].d[  4] =        -0.004984728340;

  // Basis function   7 L = p
  InitBFNGauss(BAS[ATNO][  6]);
  BAS[ATNO][  6].l  = 1;
  BAS[ATNO][  6].ng = 5;
  BAS[ATNO][  6].a[  0] =        28.390000000000;     BAS[ATNO][  6].d[  0] =        -0.024414268608;
  BAS[ATNO][  6].a[  1] =         6.270000000000;     BAS[ATNO][  6].d[  1] =        -0.127234218945;
  BAS[ATNO][  6].a[  2] =         1.695000000000;     BAS[ATNO][  6].d[  2] =        -0.269503605544;
  BAS[ATNO][  6].a[  3] =         0.431700000000;     BAS[ATNO][  6].d[  3] =         0.157486366978;
  BAS[ATNO][  6].a[  4] =        40.184000000000;     BAS[ATNO][  6].d[  4] =         1.046990947525;

  // Basis function   8 L = d
  InitBFNGauss(BAS[ATNO][  7]);
  BAS[ATNO][  7].l  = 2;
  BAS[ATNO][  7].ng = 1;
  BAS[ATNO][  7].a[  0] =         2.202000000000;     BAS[ATNO][  7].d[  0] =         1.000000000000;

-------
TIMINGS
-------

Total SCF time: 0 days 0 hours 0 min 1 sec 

Total time                  ....       1.710 sec
Sum of individual times     ....       1.535 sec  ( 89.8%)

Fock matrix formation       ....       1.124 sec  ( 65.7%)
  XC integration            ....       0.021 sec  (  1.9% of F)
    Basis function eval.    ....       0.002 sec  ( 11.4% of XC)
    Density eval.           ....       0.001 sec  (  3.6% of XC)
    XC-Functional eval.     ....       0.002 sec  (  8.6% of XC)
    XC-Potential eval.      ....       0.000 sec  (  1.6% of XC)
Diagonalization             ....       0.001 sec  (  0.1%)
Density matrix formation    ....       0.000 sec  (  0.0%)
Population analysis         ....       0.000 sec  (  0.0%)
Initial guess               ....       0.095 sec  (  5.5%)
Orbital Transformation      ....       0.000 sec  (  0.0%)
Orbital Orthonormalization  ....       0.000 sec  (  0.0%)
DIIS solution               ....       0.001 sec  (  0.0%)
SOSCF solution              ....       0.000 sec  (  0.0%)
Grid generation             ....       0.314 sec  ( 18.3%)

-------------------------   --------------------
FINAL SINGLE POINT ENERGY       -93.270587269721
-------------------------   --------------------


                            ***************************************
                            *     ORCA property calculations      *
                            ***************************************

                                    ---------------------
                                    Active property flags
                                    ---------------------
   (+) Dipole Moment


------------------------------------------------------------------------------
                       ORCA ELECTRIC PROPERTIES CALCULATION
------------------------------------------------------------------------------

Dipole Moment Calculation                       ... on
Quadrupole Moment Calculation                   ... off
Polarizability Calculation                      ... off
GBWName                                         ... Ne_cc-pcvdz_274.071978_.gbw
Electron density file                           ... Ne_cc-pcvdz_274.071978_.scfp
The origin for moment calculation is the CENTER OF MASS  = ( 0.000000,  0.000000  0.000000)

-------------
DIPOLE MOMENT
-------------
                                X             Y             Z
Electronic contribution:      0.00000       0.00000       0.00000
Nuclear contribution   :      0.00000       0.00000       0.00000
                        -----------------------------------------
Total Dipole Moment    :      0.00000       0.00000       0.00000
                        -----------------------------------------
Magnitude (a.u.)       :      0.00000
Magnitude (Debye)      :      0.00000



--------------------
Rotational spectrum 
--------------------
 
Rotational constants in cm-1:     0.000000     0.000000     0.000000 
Rotational constants in MHz :     0.000000     0.000000     0.000000 

 Dipole components along the rotational axes: 
x,y,z [a.u.] :     0.000000     0.000000     0.000000 
x,y,z [Debye]:     0.000000     0.000000     0.000000 

 

Timings for individual modules:

Sum of individual times         ...        2.823 sec (=   0.047 min)
GTO integral calculation        ...        0.493 sec (=   0.008 min)  17.5 %
Relativistic integrals          ...        0.348 sec (=   0.006 min)  12.3 %
SCF iterations                  ...        1.982 sec (=   0.033 min)  70.2 %
                             ****ORCA TERMINATED NORMALLY****
TOTAL RUN TIME: 0 days 0 hours 0 minutes 3 seconds 143 msec
