
                                 *****************
                                 * O   R   C   A *
                                 *****************

           --- An Ab Initio, DFT and Semiempirical electronic structure package ---

                  #######################################################
                  #                        -***-                        #
                  #          Department of theory and spectroscopy      #
                  #               Directorship: Frank Neese             #
                  #        Max Planck Institute fuer Kohlenforschung    #
                  #                Kaiser Wilhelm Platz 1               #
                  #                 D-45470 Muelheim/Ruhr               #
                  #                      Germany                        #
                  #                                                     #
                  #                  All rights reserved                #
                  #                        -***-                        #
                  #######################################################


                         Program Version 4.2.1 -  RELEASE  -


 With contributions from (in alphabetic order):
   Daniel Aravena         : Magnetic Suceptibility
   Michael Atanasov       : Ab Initio Ligand Field Theory (pilot matlab implementation)
   Alexander A. Auer      : GIAO ZORA, VPT2
   Ute Becker             : Parallelization
   Giovanni Bistoni       : ED, misc. LED, open-shell LED, HFLD
   Martin Brehm           : Molecular dynamics
   Dmytro Bykov           : SCF Hessian
   Vijay G. Chilkuri      : MRCI spin determinant printing, contributions to CSF-ICE
   Dipayan Datta          : RHF DLPNO-CCSD density
   Achintya Kumar Dutta   : EOM-CC, STEOM-CC
   Dmitry Ganyushin       : Spin-Orbit,Spin-Spin,Magnetic field MRCI
   Miquel Garcia          : C-PCM Hessian, Gaussian charge scheme
   Yang Guo               : DLPNO-NEVPT2, CIM, IAO-localization
   Andreas Hansen         : Spin unrestricted coupled pair/coupled cluster methods
   Benjamin Helmich-Paris : CASSCF linear response (MC-RPA)
   Lee Huntington         : MR-EOM, pCC
   Robert Izsak           : Overlap fitted RIJCOSX, COSX-SCS-MP3, EOM
   Christian Kollmar      : KDIIS, OOCD, Brueckner-CCSD(T), CCSD density
   Simone Kossmann        : Meta GGA functionals, TD-DFT gradient, OOMP2, MP2 Hessian
   Martin Krupicka        : AUTO-CI
   Lucas Lang             : DCDCAS
   Dagmar Lenk            : GEPOL surface, SMD
   Dimitrios Liakos       : Extrapolation schemes; Compound Job, initial MDCI parallelization
   Dimitrios Manganas     : Further ROCIS development; embedding schemes
   Dimitrios Pantazis     : SARC Basis sets
   Taras Petrenko         : DFT Hessian,TD-DFT gradient, ASA, ECA, R-Raman, ABS, FL, XAS/XES, NRVS
   Peter Pinski           : DLPNO-MP2, DLPNO-MP2 Gradient
   Christoph Reimann      : Effective Core Potentials
   Marius Retegan         : Local ZFS, SOC
   Christoph Riplinger    : Optimizer, TS searches, QM/MM, DLPNO-CCSD(T), (RO)-DLPNO pert. Triples
   Tobias Risthaus        : Range-separated hybrids, TD-DFT gradient, RPA, STAB
   Michael Roemelt        : Original ROCIS implementation
   Masaaki Saitow         : Open-shell DLPNO-CCSD energy and density
   Barbara Sandhoefer     : DKH picture change effects
   Avijit Sen             : IP-ROCIS
   Kantharuban Sivalingam : CASSCF convergence, NEVPT2, FIC-MRCI
   Bernardo de Souza      : ESD, SOC TD-DFT
   Georgi Stoychev        : AutoAux, RI-MP2 NMR
   Willem Van den Heuvel  : Paramagnetic NMR
   Boris Wezisla          : Elementary symmetry handling
   Frank Wennmohs         : Technical directorship


 We gratefully acknowledge several colleagues who have allowed us to
 interface, adapt or use parts of their codes:
   Stefan Grimme, W. Hujo, H. Kruse,             : VdW corrections, initial TS optimization,
                  C. Bannwarth                     DFT functionals, gCP, sTDA/sTD-DF
   Ed Valeev, F. Pavosevic, A. Kumar             : LibInt (2-el integral package), F12 methods
   Garnet Chan, S. Sharma, J. Yang, R. Olivares  : DMRG
   Ulf Ekstrom                                   : XCFun DFT Library
   Mihaly Kallay                                 : mrcc  (arbitrary order and MRCC methods)
   Andreas Klamt, Michael Diedenhofen            : otool_cosmo (COSMO solvation model)
   Jiri Pittner, Ondrej Demel                    : Mk-CCSD
   Frank Weinhold                                : gennbo (NPA and NBO analysis)
   Christopher J. Cramer and Donald G. Truhlar   : smd solvation model
   Lars Goerigk                                  : TD-DFT with DH, B97 family of functionals
   V. Asgeirsson, H. Jonsson                     : NEB implementation
   FAccTs GmbH                                   : IRC, NEB, NEB-TS, Multilevel, MM, QM/MM, CI optimization
   S Lehtola, MJT Oliveira, MAL Marques          : LibXC Library


 Your calculation uses the libint2 library for the computation of 2-el integrals
 For citations please refer to: http://libint.valeyev.net

 Your ORCA version has been built with support for libXC version: 4.2.3
 For citations please refer to: https://tddft.org/programs/libxc/

 This ORCA versions uses:
   CBLAS   interface :  Fast vector & matrix operations
   LAPACKE interface :  Fast linear algebra routines
   SCALAPACK package :  Parallel linear algebra routines


----- Orbital basis set information -----
Your calculation utilizes the basis: cc-pCVQZ 
             H : cc-pVQZ. Obtained from the ccRepo (grant-hill.group.shef.ac.uk/ccrepo) Feb. 2017
                 T. H. Dunning, Jr., J. Chem. Phys. 90, 1007 (1989)
            He : cc-pVQZ. Obtained from the ccRepo (grant-hill.group.shef.ac.uk/ccrepo) Feb. 2017
                 D. E. Woon, T. H. Dunning, Jr., J. Chem. Phys. 100, 2975 (1994)
  Li-Be, Na-Mg : Obtained from the ccRepo (grant-hill.group.shef.ac.uk/ccrepo) Feb. 2017
                 B. P. Prascher, D. E. Woon, K. A. Peterson, T. H. Dunning, Jr., A. K. Wilson, Theor. Chem. Acc. 128, 69 (2011)
          B-Ne : Obtained from the ccRepo (grant-hill.group.shef.ac.uk/ccrepo) Feb. 2017
                 D. E. Woon, T. H. Dunning, Jr., J. Chem. Phys. 103, 4572 (1995)
                  K. A. Peterson, T. H. Dunning, Jr., J. Chem. Phys. 117, 10548 (2002)
         Al-Ar : Obtained from the EMSL Basis Set Exchange (bse.pnl.gov) Feb. 2017
                 K. A. Peterson, T. H. Dunning, Jr., J. Chem. Phys. 117, 10548 (2002)
            Ca : Obtained from the Peterson Research Group Website (tyr0.chem.wsu.edu/~kipeters) Feb. 2017
                 J. Koput, K. A. Peterson, J. Phys. Chem. A 106, 9595 (2002)
         Ga-Kr : Obtained from the Peterson Research Group Website (tyr0.chem.wsu.edu/~kipeters) Feb. 2017
                 N. J. DeYonker, K. A. Peterson, A. K. Wilson, J. Phys. Chem. A 111, 11383 (2007)

================================================================================
                                        WARNINGS
                       Please study these warnings very carefully!
================================================================================


INFO   : the flag for use of LIBINT has been found!

================================================================================
                                       INPUT FILE
================================================================================
NAME = Ne_cc-pcvqz_34.25899725_.inp
|  1> ! LDA cc-pcvqz nori grid5 finalgrid6 verytightscf
|  2> %Pal NProcs 18 End
|  3> 
|  4> % REL
|  5>   Method ZORA
|  6>   ModelPot 1, 0, 0, 0
|  7>   velit 34.25899725
|  8> END
|  9> 
| 10> *xyz 8 1
| 11> Ne 0.0 0.0 0.0
| 12> **                         ****END OF INPUT****
================================================================================

                       ****************************
                       * Single Point Calculation *
                       ****************************

---------------------------------
CARTESIAN COORDINATES (ANGSTROEM)
---------------------------------
  Ne     0.000000    0.000000    0.000000

----------------------------
CARTESIAN COORDINATES (A.U.)
----------------------------
  NO LB      ZA    FRAG     MASS         X           Y           Z
   0 Ne   10.0000    0    20.179    0.000000    0.000000    0.000000

--------------------------------
INTERNAL COORDINATES (ANGSTROEM)
--------------------------------
 Ne     0   0   0     0.000000000000     0.00000000     0.00000000

---------------------------
INTERNAL COORDINATES (A.U.)
---------------------------
 Ne     0   0   0     0.000000000000     0.00000000     0.00000000

---------------------
BASIS SET INFORMATION
---------------------
There are 1 groups of distinct atoms

 Group   1 Type Ne  : 24s9p5d3f1g contracted to 8s7p5d3f1g pattern {99111111/3111111/11111/111/1}

Atom   0Ne   basis set group =>   1


           ************************************************************
           *        Program running with 18 parallel MPI-processes    *
           *              working on a common directory               *
           ************************************************************
------------------------------------------------------------------------------
                           ORCA GTO INTEGRAL CALCULATION
------------------------------------------------------------------------------

                         BASIS SET STATISTICS AND STARTUP INFO

 # of primitive gaussian shells          ...   42
 # of primitive gaussian functions       ...  106
 # of contracted shells                  ...   24
 # of contracted basis functions         ...   84
 Highest angular momentum                ...    4
 Maximum contraction depth               ...    9
 Integral package used                   ... LIBINT
 Integral threshhold            Thresh   ...  1.000e-12
 Primitive cut-off              TCut     ...  1.000e-14


------------------------------ INTEGRAL EVALUATION ----------------------------


 * One electron integrals 
 Pre-screening matrix                    ... done
 Shell pair data                         ... done (   0.000 sec)



           ************************************************************
           *        Program running with 18 parallel MPI-processes    *
           *              working on a common directory               *
           ************************************************************
------------------------------------------------------------------------------
                          ORCA RELATIVISTIC HAMILTONIAN
------------------------------------------------------------------------------

Relativistic Method            ... ZORA(MP)
Treatment of potential         ... Van Wuellen
Nucleus model                  ... Point Nucleus
Speed of light used            ...  34.25899725000000


            *************************************************
            *         ZERO ORDER REGULAR APPROXIMATION      *
            *                     ZORA(MP)                  *
            *            Programmed by FN according to      *
            *                   C. van Wuellen              *
            *       J. Chem. Phys. (1998) vol 109, 392-399  *
            *************************************************

Terms included in model potential: +V(e,N)
Basis function cutoff value   ... 1.000000e-12
Loading the fitted atomic densities  (DKH4)  ... done
Calculating the cutoffs                      ... done
Number of fit functions                      ... 11
Setting up the integration grid ... done


           ************************************************************
           *        Program running with 18 parallel MPI-processes    *
           *              working on a common directory               *
           ************************************************************
-------------------------------------------------------------------------------
                                 ORCA SCF
-------------------------------------------------------------------------------

------------
SCF SETTINGS
------------
Hamiltonian:
 Density Functional     Method          .... DFT(GTOs)
 Exchange Functional    Exchange        .... Slater
   X-Alpha parameter    XAlpha          ....  0.666667
 Correlation Functional Correlation     .... VWN-5
 Gradients option       PostSCFGGA      .... off
   Density functional embedding theory  .... OFF

Relativistic Settings:
 Scalar relativistic method             .... ZORA
 Speed of light used       Velit        ....       34.2589973
Orbital energies will be scaled


General Settings:
 Integral files         IntName         .... Ne_cc-pcvqz_34.25899725_
 Hartree-Fock type      HFTyp           .... RHF
 Total Charge           Charge          ....    8
 Multiplicity           Mult            ....    1
 Number of Electrons    NEL             ....    2
 Basis Dimension        Dim             ....   84
 Nuclear Repulsion      ENuc            ....      0.0000000000 Eh

Convergence Acceleration:
 DIIS                   CNVDIIS         .... on
   Start iteration      DIISMaxIt       ....    12
   Startup error        DIISStart       ....  0.200000
   # of expansion vecs  DIISMaxEq       ....     5
   Bias factor          DIISBfac        ....   1.050
   Max. coefficient     DIISMaxC        ....  10.000
 Newton-Raphson         CNVNR           .... off
 SOSCF                  CNVSOSCF        .... on
   Start iteration      SOSCFMaxIt      ....   150
   Startup grad/error   SOSCFStart      ....  0.003300
 Level Shifting         CNVShift        .... on
   Level shift para.    LevelShift      ....    0.2500
   Turn off err/grad.   ShiftErr        ....    0.0010
 Zerner damping         CNVZerner       .... off
 Static damping         CNVDamp         .... on
   Fraction old density DampFac         ....    0.7000
   Max. Damping (<1)    DampMax         ....    0.9800
   Min. Damping (>=0)   DampMin         ....    0.0000
   Turn off err/grad.   DampErr         ....    0.1000
 Fernandez-Rico         CNVRico         .... off

SCF Procedure:
 Maximum # iterations   MaxIter         ....   125
 SCF integral mode      SCFMode         .... Direct
   Integral package                     .... LIBINT
 Reset frequency        DirectResetFreq ....    20
 Integral Threshold     Thresh          ....  1.000e-12 Eh
 Primitive CutOff       TCut            ....  1.000e-14 Eh

Convergence Tolerance:
 Convergence Check Mode ConvCheckMode   .... Total+1el-Energy
 Convergence forced     ConvForced      .... 0
 Energy Change          TolE            ....  1.000e-09 Eh
 1-El. energy change                    ....  1.000e-06 Eh
 Orbital Gradient       TolG            ....  2.000e-06
 Orbital Rotation angle TolX            ....  2.000e-06
 DIIS Error             TolErr          ....  1.000e-08


Diagonalization of the overlap matrix:
Smallest eigenvalue                        ... 1.230e-04
Time for diagonalization                   ...    0.002 sec
Threshold for overlap eigenvalues          ... 1.000e-08
Number of eigenvalues below threshold      ... 0
Time for construction of square roots      ...    0.001 sec
Total time needed                          ...    0.003 sec

-------------------
DFT GRID GENERATION
-------------------

General Integration Accuracy     IntAcc      ...  5.010
Radial Grid Type                 RadialGrid  ... Gauss-Chebyshev
Angular Grid (max. acc.)         AngularGrid ... Lebedev-434
Angular grid pruning method      GridPruning ... 3 (G Style)
Weight generation scheme         WeightScheme... Becke
Basis function cutoff            BFCut       ...    1.0000e-12
Integration weight cutoff        WCut        ...    1.0000e-14
Grids for H and He will be reduced by one unit

# of grid points (after initial pruning)     ...  10818 (   0.0 sec)
# of grid points (after weights+screening)   ...  10818 (   0.0 sec)
Grid point division into batches done        ...    0.1 sec
Reduced shell lists constructed in    0.1 sec

Total number of grid points                  ...    10818
Total number of batches                      ...      170
Average number of points per batch           ...       63
Average number of grid points per atom       ...    10818
Average number of shells per batch           ...     0.00 ( 0.00%)
Average number of basis functions per batch  ...     0.00 ( 0.00%)
Average number of large shells per batch     ...     0.00 ( -nan%)
Average number of large basis fcns per batch ...     0.00 ( -nan%)
Maximum spatial batch extension              ...  16.29, 16.29, 16.29 au
Average spatial batch extension              ...   0.85,  0.86,  0.85 au

Time for grid setup =    0.122 sec

------------------------------
INITIAL GUESS: MODEL POTENTIAL
------------------------------
Loading ZORA relativistic densities                ... done
Calculating cut-offs                               ... done
Setting up the integral package                    ... done
Initializing the effective Hamiltonian             ... done
Starting the Coulomb interaction                   ... done (   0.0 sec)
Reading the grid                                   ... done
Mapping shells                                     ... done
Starting the XC term evaluation                    ... done (   0.0 sec)
  promolecular density results
     # of electrons  =     10.000000334
     EX              =    -11.053709298
     EC              =     -0.746638772
     EX+EC           =    -11.800348070
Transforming the Hamiltonian                       ... done (   0.0 sec)
Diagonalizing the Hamiltonian                      ... done (   0.0 sec)
Back transforming the eigenvectors                 ... done (   0.0 sec)
Now organizing SCF variables                       ... done
                      ------------------
                      INITIAL GUESS DONE (   0.2 sec)
                      ------------------
--------------
SCF ITERATIONS
--------------
ITER       Energy         Delta-E        Max-DP      RMS-DP      [F,P]     Damp
               ***  Starting incremental Fock matrix formation  ***
  0    -97.2908219837   0.000000000000 0.08483605  0.00138466  0.5873222 0.7000
  1    -97.2927087842  -0.001886800514 0.05841512  0.00095480  0.4062921 0.7000
                      *** Initiating the SOSCF procedure ***
                      *** Re-Reading the Fockian *** 
                      *** Removing any level shift *** 
ITER      Energy       Delta-E        Grad      Rot      Max-DP    RMS-DP
  2    -97.29400751  -0.0012987304  0.002853  0.002853  0.133171  0.002180
               *** Restarting incremental Fock matrix formation ***
  3    -97.29697130  -0.0029637807  0.006498  0.000100  0.007123  0.000109
  4    -97.29697387  -0.0000025787  0.000359  0.000006  0.000401  0.000006
                  ***Gradient check signals convergence***
              ***Rediagonalizing the Fockian in SOSCF/NRSCF***

               *****************************************************
               *                     SUCCESS                       *
               *           SCF CONVERGED AFTER   5 CYCLES          *
               *****************************************************

Setting up the final grid:

General Integration Accuracy     IntAcc      ...  5.340
Radial Grid Type                 RadialGrid  ... Gauss-Chebyshev
Angular Grid (max. acc.)         AngularGrid ... Lebedev-590
Angular grid pruning method      GridPruning ... 3 (G Style)
Weight generation scheme         WeightScheme... Becke
Basis function cutoff            BFCut       ...    1.0000e-12
Integration weight cutoff        WCut        ...    1.0000e-14
Grids for H and He will be reduced by one unit

# of grid points (after initial pruning)     ...  16840 (   0.0 sec)
# of grid points (after weights+screening)   ...  16840 (   0.0 sec)
Grid point division into batches done        ...    0.2 sec
Reduced shell lists constructed in    0.2 sec

Total number of grid points                  ...    16840
Total number of batches                      ...      264
Average number of points per batch           ...       63
Average number of grid points per atom       ...    16840
Average number of shells per batch           ...     0.00 ( 0.00%)
Average number of basis functions per batch  ...     0.00 ( 0.00%)
Average number of large shells per batch     ...     0.00 ( -nan%)
Average number of large basis fcns per batch ...     0.00 ( -nan%)
Maximum spatial batch extension              ...  16.63, 16.63, 16.63 au
Average spatial batch extension              ...   0.74,  0.74,  0.69 au

Final grid set up in    0.2 sec
Final integration                            ... done (   0.0 sec)
Change in XC energy                          ...     0.000000688
Integrated number of electrons               ...     1.999999865
Previous integrated no of electrons          ...     1.999999969

----------------
TOTAL SCF ENERGY
----------------

Total Energy       :          -97.29697320 Eh           -2647.58524 eV

Components:
Nuclear Repulsion  :            0.00000000 Eh               0.00000 eV
Electronic Energy  :          -97.29697320 Eh           -2647.58524 eV
One Electron Energy:         -104.29593707 Eh           -2838.03673 eV
Two Electron Energy:            6.99896387 Eh             190.45149 eV

Virial components:
Potential Energy   :         -198.64842630 Eh           -5405.49849 eV
Kinetic Energy     :          101.35145310 Eh            2757.91325 eV
Virial Ratio       :            1.95999584


DFT components:
N(Alpha)           :        0.999999932548 electrons
N(Beta)            :        0.999999932548 electrons
N(Total)           :        1.999999865096 electrons
E(X)               :       -5.433044207582 Eh       
E(C)               :       -0.205442957154 Eh       
E(XC)              :       -5.638487164736 Eh       
DFET-embed. en.    :        0.000000000000 Eh       

---------------
SCF CONVERGENCE
---------------

  Last Energy change         ...   -8.5990e-09  Tolerance :   1.0000e-09
  Last MAX-Density change    ...    3.2044e-08  Tolerance :   1.0000e-08
  Last RMS-Density change    ...    5.8449e-10  Tolerance :   1.0000e-09
  Last Orbital Gradient      ...    7.0211e-08  Tolerance :   2.0000e-06
  Last Orbital Rotation      ...    5.0407e-10  Tolerance :   2.0000e-06

             **** THE GBW FILE WAS UPDATED (Ne_cc-pcvqz_34.25899725_.gbw) ****
             **** DENSITY FILE WAS UPDATED (Ne_cc-pcvqz_34.25899725_.scfp) ****
             **** ENERGY FILE WAS UPDATED (Ne_cc-pcvqz_34.25899725_.en.tmp) ****
             **** THE GBW FILE WAS UPDATED (Ne_cc-pcvqz_34.25899725_.gbw) ****
             **** DENSITY FILE WAS UPDATED (Ne_cc-pcvqz_34.25899725_.scfp) ****
----------------
ORBITAL ENERGIES
----------------

  NO   OCC          E(Eh)            E(eV) 
   0   2.0000     -43.244506     -1176.7428 
   1   0.0000      -9.328189      -253.8329 
   2   0.0000      -8.725816      -237.4415 
   3   0.0000      -8.725816      -237.4415 
   4   0.0000      -8.725816      -237.4415 
   5   0.0000      -3.915787      -106.5540 
   6   0.0000      -3.731436      -101.5375 
   7   0.0000      -3.731436      -101.5375 
   8   0.0000      -3.731436      -101.5375 
   9   0.0000      -3.604630       -98.0870 
  10   0.0000      -3.604630       -98.0870 
  11   0.0000      -3.604630       -98.0870 
  12   0.0000      -3.604630       -98.0870 
  13   0.0000      -3.604630       -98.0870 
  14   0.0000      -1.939716       -52.7823 
  15   0.0000      -1.939716       -52.7823 
  16   0.0000      -1.939716       -52.7823 
  17   0.0000      -1.293273       -35.1917 
  18   0.0000      -0.488425       -13.2907 
  19   0.0000      -0.488425       -13.2907 
  20   0.0000      -0.488425       -13.2907 
  21   0.0000      -0.488425       -13.2907 
  22   0.0000      -0.488425       -13.2907 
  23   0.0000      -0.404082       -10.9956 
  24   0.0000      -0.404082       -10.9956 
  25   0.0000      -0.404082       -10.9956 
  26   0.0000      -0.404082       -10.9956 
  27   0.0000      -0.404082       -10.9956 
  28   0.0000      -0.404082       -10.9956 
  29   0.0000      -0.404082       -10.9956 
  30   0.0000       4.771963       129.8517 
  31   0.0000       4.771963       129.8517 
  32   0.0000       4.771963       129.8517 
  33   0.0000       7.307392       198.8442 
  34   0.0000       7.307392       198.8442 
  35   0.0000       7.307392       198.8442 
  36   0.0000       7.307392       198.8442 
  37   0.0000       7.307392       198.8442 
  38   0.0000       7.307392       198.8442 
  39   0.0000       7.307392       198.8442 
  40   0.0000       7.307392       198.8442 
  41   0.0000       7.307392       198.8442 
  42   0.0000      10.784692       293.4664 
  43   0.0000      10.784692       293.4664 
  44   0.0000      10.784692       293.4664 
  45   0.0000      10.784692       293.4664 
  46   0.0000      10.784692       293.4664 
  47   0.0000      10.784692       293.4664 
  48   0.0000      10.784692       293.4664 
  49   0.0000      11.017460       299.8003 
  50   0.0000      11.017460       299.8003 
  51   0.0000      11.017460       299.8003 
  52   0.0000      11.017460       299.8003 
  53   0.0000      11.017460       299.8003 
  54   0.0000      13.976617       380.3231 
  55   0.0000      37.474884      1019.7434 
  56   0.0000      37.474884      1019.7434 
  57   0.0000      37.474884      1019.7434 
  58   0.0000      61.670294      1678.1340 
  59   0.0000      61.670294      1678.1340 
  60   0.0000      61.670294      1678.1340 
  61   0.0000      61.670294      1678.1340 
  62   0.0000      61.670294      1678.1340 
  63   0.0000      79.038033      2150.7342 
  64   0.0000      97.886908      2663.6382 
  65   0.0000      97.886908      2663.6382 
  66   0.0000      97.886908      2663.6382 
  67   0.0000      97.886908      2663.6382 
  68   0.0000      97.886908      2663.6382 
  69   0.0000      97.886908      2663.6382 
  70   0.0000      97.886908      2663.6382 
  71   0.0000     156.506698      4258.7638 
  72   0.0000     156.506698      4258.7638 
  73   0.0000     156.506698      4258.7638 
  74   0.0000     283.479860      7713.8792 
  75   0.0000     283.479860      7713.8792 
  76   0.0000     283.479860      7713.8792 
  77   0.0000     283.479860      7713.8792 
  78   0.0000     283.479860      7713.8792 
  79   0.0000     294.387544      8010.6923 
  80   0.0000     542.221818     14754.6058 
  81   0.0000     542.221818     14754.6058 
  82   0.0000     542.221818     14754.6058 
  83   0.0000    1121.948049     30529.7585 

                    ********************************
                    * MULLIKEN POPULATION ANALYSIS *
                    ********************************

-----------------------
MULLIKEN ATOMIC CHARGES
-----------------------
   0 Ne:    8.000000
Sum of atomic charges:    8.0000000

--------------------------------
MULLIKEN REDUCED ORBITAL CHARGES
--------------------------------
  0 Nes       :     2.000000  s :     2.000000
      pz      :     0.000000  p :     0.000000
      px      :     0.000000
      py      :     0.000000
      dz2     :     0.000000  d :     0.000000
      dxz     :     0.000000
      dyz     :     0.000000
      dx2y2   :     0.000000
      dxy     :     0.000000
      f0      :     0.000000  f :     0.000000
      f+1     :     0.000000
      f-1     :     0.000000
      f+2     :     0.000000
      f-2     :     0.000000
      f+3     :     0.000000
      f-3     :     0.000000
      g0      :     0.000000  g :     0.000000
      g+1     :     0.000000
      g-1     :     0.000000
      g+2     :    -0.000000
      g-2     :     0.000000
      g+3     :     0.000000
      g-3     :     0.000000
      g+4     :     0.000000
      g-4     :     0.000000


                     *******************************
                     * LOEWDIN POPULATION ANALYSIS *
                     *******************************

----------------------
LOEWDIN ATOMIC CHARGES
----------------------
   0 Ne:    8.000000

-------------------------------
LOEWDIN REDUCED ORBITAL CHARGES
-------------------------------
  0 Nes       :     2.000000  s :     2.000000
      pz      :     0.000000  p :     0.000000
      px      :     0.000000
      py      :     0.000000
      dz2     :     0.000000  d :     0.000000
      dxz     :     0.000000
      dyz     :     0.000000
      dx2y2   :     0.000000
      dxy     :     0.000000
      f0      :     0.000000  f :     0.000000
      f+1     :     0.000000
      f-1     :     0.000000
      f+2     :     0.000000
      f-2     :     0.000000
      f+3     :     0.000000
      f-3     :     0.000000
      g0      :     0.000000  g :     0.000000
      g+1     :     0.000000
      g-1     :     0.000000
      g+2     :     0.000000
      g-2     :     0.000000
      g+3     :     0.000000
      g-3     :     0.000000
      g+4     :     0.000000
      g-4     :     0.000000


                      *****************************
                      * MAYER POPULATION ANALYSIS *
                      *****************************

  NA   - Mulliken gross atomic population
  ZA   - Total nuclear charge
  QA   - Mulliken gross atomic charge
  VA   - Mayer's total valence
  BVA  - Mayer's bonded valence
  FA   - Mayer's free valence

  ATOM       NA         ZA         QA         VA         BVA        FA
  0 Ne     2.0000    10.0000     8.0000     0.0000     0.0000     0.0000

  Mayer bond orders larger than 0.100000


--------------------------
ATOM BASIS FOR ELEMENT Ne
--------------------------
 NewGTO Ne
 S 24
    1      99920.000000000000         0.000154474093
    2      14960.000000000000         0.001201664747
    3       3399.000000000000         0.006319068134
    4        958.900000000000         0.026345017714
    5        311.200000000000         0.091538473632
    6        111.700000000000         0.258194465558
    7         43.320000000000         0.547057427226
    8         17.800000000000         0.718672756025
    9          7.503000000000         0.392730623382
   10      99920.000000000000        -0.000034189674
   11      14960.000000000000        -0.000270098428
   12       3399.000000000000        -0.001408614588
   13        958.900000000000        -0.005983193030
   14        311.200000000000        -0.020912114382
   15        111.700000000000        -0.063279958970
   16         43.320000000000        -0.147208771828
   17         17.800000000000        -0.270749741514
   18          7.503000000000        -0.195373475721
   19          2.337000000000         0.003059574948
   20          0.900100000000         0.001864922952
   21          0.330100000000        -0.000723852313
   22         20.180000000000        -0.081829375276
   23         54.042000000000        -0.066442548742
   24        144.725000000000        -0.032955996117
 S 24
    1      99920.000000000000         0.000042640248
    2      14960.000000000000         0.000331701465
    3       3399.000000000000         0.001744283635
    4        958.900000000000         0.007272145560
    5        311.200000000000         0.025267817689
    6        111.700000000000         0.071270695536
    7         43.320000000000         0.151006967760
    8         17.800000000000         0.198378795896
    9          7.503000000000         0.108407376688
   10      99920.000000000000        -0.000002690713
   11      14960.000000000000        -0.000021256632
   12       3399.000000000000        -0.000110857370
   13        958.900000000000        -0.000470874753
   14        311.200000000000        -0.001645774529
   15        111.700000000000        -0.004980105923
   16         43.320000000000        -0.011585267885
   17         17.800000000000        -0.021307889784
   18          7.503000000000        -0.015375809646
   19          2.337000000000        -0.796881766210
   20          0.900100000000        -0.366815391395
   21          0.330100000000         0.013561350931
   22         20.180000000000         0.055601359699
   23         54.042000000000        -0.010152452057
   24        144.725000000000        -0.007814753955
 S 24
    1      99920.000000000000        -0.000011388612
    2      14960.000000000000        -0.000088592807
    3       3399.000000000000        -0.000465873682
    4        958.900000000000        -0.001942288032
    5        311.200000000000        -0.006748679531
    6        111.700000000000        -0.019035402662
    7         43.320000000000        -0.040331842063
    8         17.800000000000        -0.052984192606
    9          7.503000000000        -0.028954089072
   10      99920.000000000000        -0.000009400375
   11      14960.000000000000        -0.000074262966
   12       3399.000000000000        -0.000387295470
   13        958.900000000000        -0.001645065712
   14        311.200000000000        -0.005749739673
   15        111.700000000000        -0.017398684989
   16         43.320000000000        -0.040474726760
   17         17.800000000000        -0.074442043582
   18          7.503000000000        -0.053717505742
   19          2.337000000000         0.958465011585
   20          0.900100000000        -0.056278607735
   21          0.330100000000        -1.163465140445
   22         20.180000000000         0.003979932630
   23         54.042000000000         0.005846703546
   24        144.725000000000         0.005911271294
 S 24
    1      99920.000000000000        -0.000045188437
    2      14960.000000000000        -0.000351524006
    3       3399.000000000000        -0.001848522352
    4        958.900000000000        -0.007706730339
    5        311.200000000000        -0.026777827199
    6        111.700000000000        -0.075529845628
    7         43.320000000000        -0.160031172390
    8         17.800000000000        -0.210233949833
    9          7.503000000000        -0.114885821790
   10      99920.000000000000         0.000072375400
   11      14960.000000000000         0.000571765657
   12       3399.000000000000         0.002981866464
   13        958.900000000000         0.012665694934
   14        311.200000000000         0.044268413180
   15        111.700000000000         0.133956008393
   16         43.320000000000         0.311623139387
   17         17.800000000000         0.573144408386
   18          7.503000000000         0.413581983607
   19          2.337000000000        -2.688401469105
   20          0.900100000000         3.934354067916
   21          0.330100000000        -2.021505782093
   22         20.180000000000        -0.262646731057
   23         54.042000000000        -0.015959120006
   24        144.725000000000        -0.020474508311
 S 24
    1      99920.000000000000        -0.001202461858
    2      14960.000000000000        -0.009354034688
    3       3399.000000000000        -0.049189079270
    4        958.900000000000        -0.205075675283
    5        311.200000000000        -0.712556525792
    6        111.700000000000        -2.009845085424
    7         43.320000000000        -4.258420796047
    8         17.800000000000        -5.594313974175
    9          7.503000000000        -3.057105471237
   10      99920.000000000000         0.001125065222
   11      14960.000000000000         0.008888015255
   12       3399.000000000000         0.046352687155
   13        958.900000000000         0.196886413887
   14        311.200000000000         0.688146143166
   15        111.700000000000         2.082326966530
   16         43.320000000000         4.844137074015
   17         17.800000000000         8.909447747954
   18          7.503000000000         6.429072705805
   19          2.337000000000        -3.616739240441
   20          0.900100000000         2.356400100031
   21          0.330100000000        -0.733526705059
   22         20.180000000000        -5.044287283089
   23         54.042000000000        -0.258507202988
   24        144.725000000000        -0.197054058596
 S 24
    1      99920.000000000000         0.000605249695
    2      14960.000000000000         0.004708279607
    3       3399.000000000000         0.024758935211
    4        958.900000000000         0.103223224201
    5        311.200000000000         0.358659708988
    6        111.700000000000         1.011639676795
    7         43.320000000000         2.143442531472
    8         17.800000000000         2.815853829613
    9          7.503000000000         1.538769934697
   10      99920.000000000000        -0.000812526409
   11      14960.000000000000        -0.006418958632
   12       3399.000000000000        -0.033476088055
   13        958.900000000000        -0.142192121594
   14        311.200000000000        -0.496981778133
   15        111.700000000000        -1.503864504303
   16         43.320000000000        -3.498454333389
   17         17.800000000000        -6.434437260072
   18          7.503000000000        -4.643100912225
   19          2.337000000000         1.856794466909
   20          0.900100000000        -1.026489985916
   21          0.330100000000         0.304694558337
   22         20.180000000000         8.309892246532
   23         54.042000000000        -1.510502888490
   24        144.725000000000         0.573092955115
 S 24
    1      99920.000000000000         0.000568873553
    2      14960.000000000000         0.004425307055
    3       3399.000000000000         0.023270897188
    4        958.900000000000         0.097019399958
    5        311.200000000000         0.337103883594
    6        111.700000000000         0.950839069176
    7         43.320000000000         2.014619382975
    8         17.800000000000         2.646618055520
    9          7.503000000000         1.446288244664
   10      99920.000000000000        -0.000551002988
   11      14960.000000000000        -0.004352923607
   12       3399.000000000000        -0.022701323116
   13        958.900000000000        -0.096425522943
   14        311.200000000000        -0.337020977760
   15        111.700000000000        -1.019823880792
   16         43.320000000000        -2.372426016334
   17         17.800000000000        -4.363420214056
   18          7.503000000000        -3.148651476023
   19          2.337000000000         0.910415013187
   20          0.900100000000        -0.498758932451
   21          0.330100000000         0.148510163708
   22         20.180000000000         5.169594615983
   23         54.042000000000        -4.089324487984
   24        144.725000000000         2.572384439520
 S 24
    1      99920.000000000000         0.006063533548
    2      14960.000000000000         0.047168650506
    3       3399.000000000000         0.248040825831
    4        958.900000000000         1.034114494733
    5        311.200000000000         3.593137170557
    6        111.700000000000        10.134843794289
    7         43.320000000000        21.473510516447
    8         17.800000000000        28.209884769548
    9          7.503000000000        15.415758477282
   10      99920.000000000000        -0.002581201111
   11      14960.000000000000        -0.020391488777
   12       3399.000000000000        -0.106345485773
   13        958.900000000000        -0.451710194422
   14        311.200000000000        -1.578791659534
   15        111.700000000000        -4.777416076266
   16         43.320000000000       -11.113748563511
   17         17.800000000000       -20.440660657943
   18          7.503000000000       -14.750015628611
   19          2.337000000000        -0.453739283474
   20          0.900100000000         0.257332866422
   21          0.330100000000        -0.077626641244
   22         20.180000000000       -11.518289210406
   23         54.042000000000        -7.304947195869
   24        144.725000000000        -7.269591452762
 P 9
    1         99.680000000000         0.013711249818
    2         23.150000000000         0.096014248458
    3          7.108000000000         0.362136952813
    4          2.441000000000         0.573216368200
    5          0.833900000000         0.137616804553
    6          0.266200000000        -0.009122696509
    7         22.222000000000        -0.000627906266
    8         65.622000000000        -0.000391515778
    9        193.780000000000         0.001326678082
 P 9
    1         99.680000000000         0.008765794942
    2         23.150000000000         0.061383260073
    3          7.108000000000         0.231519249627
    4          2.441000000000         0.423014310426
    5          0.833900000000        -0.786986447380
    6          0.266200000000        -0.449274052268
    7         22.222000000000        -0.001710838758
    8         65.622000000000        -0.001571841323
    9        193.780000000000         0.000670973492
 P 9
    1         99.680000000000         0.007796991218
    2         23.150000000000         0.054599125680
    3          7.108000000000         0.205931529095
    4          2.441000000000         0.448163212962
    5          0.833900000000        -1.549569362706
    6          0.266200000000         1.366471580378
    7         22.222000000000         0.002016192550
    8         65.622000000000        -0.002019092140
    9        193.780000000000         0.000737682897
 P 9
    1         99.680000000000         0.053590764936
    2         23.150000000000         0.375274106151
    3          7.108000000000         1.415421392692
    4          2.441000000000        -2.175961250314
    5          0.833900000000         1.447679826289
    6          0.266200000000        -0.507884814265
    7         22.222000000000        -0.324510098605
    8         65.622000000000        -0.007200029091
    9        193.780000000000        -0.011593751721
 P 9
    1         99.680000000000        -0.072257035074
    2         23.150000000000        -0.505986325873
    3          7.108000000000        -1.908428688023
    4          2.441000000000         1.216132264757
    5          0.833900000000        -0.560546795351
    6          0.266200000000         0.173495264311
    7         22.222000000000         2.129399966571
    8         65.622000000000        -0.054325223105
    9        193.780000000000         0.075894302007
 P 9
    1         99.680000000000         0.038589218052
    2         23.150000000000         0.270224437528
    3          7.108000000000         1.019205544524
    4          2.441000000000        -0.538050738725
    5          0.833900000000         0.240285098226
    6          0.266200000000        -0.074396563950
    7         22.222000000000        -2.003699174623
    8         65.622000000000         1.687562404569
    9        193.780000000000        -0.143243940344
 P 9
    1         99.680000000000        -0.018137414054
    2         23.150000000000        -0.127008857873
    3          7.108000000000        -0.479039324986
    4          2.441000000000         0.251079632657
    5          0.833900000000        -0.113081319065
    6          0.266200000000         0.035185381868
    7         22.222000000000         1.066917222947
    8         65.622000000000        -1.630609547043
    9        193.780000000000         1.600787527760
 D 5
    1          6.471000000000         0.059482844718
    2          2.213000000000         0.339298690033
    3          0.747000000000         0.732209204297
    4         23.613000000000         0.006508881637
    5         90.107000000000         0.000264218882
 D 5
    1          6.471000000000         0.056282841275
    2          2.213000000000         1.148881692669
    3          0.747000000000        -1.022829862052
    4         23.613000000000         0.022277028311
    5         90.107000000000        -0.000720565666
 D 5
    1          6.471000000000         1.357808250789
    2          2.213000000000        -1.184128826960
    3          0.747000000000         0.455822145291
    4         23.613000000000        -0.025905948874
    5         90.107000000000         0.011696737648
 D 5
    1          6.471000000000        -0.880960502649
    2          2.213000000000         0.461949496247
    3          0.747000000000        -0.156749770683
    4         23.613000000000         1.245354269554
    5         90.107000000000        -0.060193947559
 D 5
    1          6.471000000000         0.309179169820
    2          2.213000000000        -0.155198208475
    3          0.747000000000         0.053161101468
    4         23.613000000000        -0.661725354257
    5         90.107000000000         1.170539081647
 F 3
    1          4.657000000000        -0.020042521356
    2          1.524000000000         1.010057122467
    3         28.830000000000         0.003162020934
 F 3
    1          4.657000000000         1.165238212614
    2          1.524000000000        -0.580735788042
    3         28.830000000000        -0.002925090305
 F 3
    1          4.657000000000        -0.244191272807
    2          1.524000000000         0.097552374086
    3         28.830000000000         1.022630873423
 G 1
    1          2.983000000000         1.000000000000
 end
  // -----------------------------------------------
  // The basis set
  // -----------------------------------------------
  BAS[ATNO] = new BFNGauss[NSH];
  // Basis function   1 L = s
  InitBFNGauss(BAS[ATNO][  0]);
  BAS[ATNO][  0].l  = 0;
  BAS[ATNO][  0].ng = 24;
  BAS[ATNO][  0].a[  0] =     99920.000000000000;     BAS[ATNO][  0].d[  0] =         0.000154474093;
  BAS[ATNO][  0].a[  1] =     14960.000000000000;     BAS[ATNO][  0].d[  1] =         0.001201664747;
  BAS[ATNO][  0].a[  2] =      3399.000000000000;     BAS[ATNO][  0].d[  2] =         0.006319068134;
  BAS[ATNO][  0].a[  3] =       958.900000000000;     BAS[ATNO][  0].d[  3] =         0.026345017714;
  BAS[ATNO][  0].a[  4] =       311.200000000000;     BAS[ATNO][  0].d[  4] =         0.091538473632;
  BAS[ATNO][  0].a[  5] =       111.700000000000;     BAS[ATNO][  0].d[  5] =         0.258194465558;
  BAS[ATNO][  0].a[  6] =        43.320000000000;     BAS[ATNO][  0].d[  6] =         0.547057427226;
  BAS[ATNO][  0].a[  7] =        17.800000000000;     BAS[ATNO][  0].d[  7] =         0.718672756025;
  BAS[ATNO][  0].a[  8] =         7.503000000000;     BAS[ATNO][  0].d[  8] =         0.392730623382;
  BAS[ATNO][  0].a[  9] =     99920.000000000000;     BAS[ATNO][  0].d[  9] =        -0.000034189674;
  BAS[ATNO][  0].a[ 10] =     14960.000000000000;     BAS[ATNO][  0].d[ 10] =        -0.000270098428;
  BAS[ATNO][  0].a[ 11] =      3399.000000000000;     BAS[ATNO][  0].d[ 11] =        -0.001408614588;
  BAS[ATNO][  0].a[ 12] =       958.900000000000;     BAS[ATNO][  0].d[ 12] =        -0.005983193030;
  BAS[ATNO][  0].a[ 13] =       311.200000000000;     BAS[ATNO][  0].d[ 13] =        -0.020912114382;
  BAS[ATNO][  0].a[ 14] =       111.700000000000;     BAS[ATNO][  0].d[ 14] =        -0.063279958970;
  BAS[ATNO][  0].a[ 15] =        43.320000000000;     BAS[ATNO][  0].d[ 15] =        -0.147208771828;
  BAS[ATNO][  0].a[ 16] =        17.800000000000;     BAS[ATNO][  0].d[ 16] =        -0.270749741514;
  BAS[ATNO][  0].a[ 17] =         7.503000000000;     BAS[ATNO][  0].d[ 17] =        -0.195373475721;
  BAS[ATNO][  0].a[ 18] =         2.337000000000;     BAS[ATNO][  0].d[ 18] =         0.003059574948;
  BAS[ATNO][  0].a[ 19] =         0.900100000000;     BAS[ATNO][  0].d[ 19] =         0.001864922952;
  BAS[ATNO][  0].a[ 20] =         0.330100000000;     BAS[ATNO][  0].d[ 20] =        -0.000723852313;
  BAS[ATNO][  0].a[ 21] =        20.180000000000;     BAS[ATNO][  0].d[ 21] =        -0.081829375276;
  BAS[ATNO][  0].a[ 22] =        54.042000000000;     BAS[ATNO][  0].d[ 22] =        -0.066442548742;
  BAS[ATNO][  0].a[ 23] =       144.725000000000;     BAS[ATNO][  0].d[ 23] =        -0.032955996117;

  // Basis function   2 L = s
  InitBFNGauss(BAS[ATNO][  1]);
  BAS[ATNO][  1].l  = 0;
  BAS[ATNO][  1].ng = 24;
  BAS[ATNO][  1].a[  0] =     99920.000000000000;     BAS[ATNO][  1].d[  0] =        -0.000042640248;
  BAS[ATNO][  1].a[  1] =     14960.000000000000;     BAS[ATNO][  1].d[  1] =        -0.000331701465;
  BAS[ATNO][  1].a[  2] =      3399.000000000000;     BAS[ATNO][  1].d[  2] =        -0.001744283635;
  BAS[ATNO][  1].a[  3] =       958.900000000000;     BAS[ATNO][  1].d[  3] =        -0.007272145560;
  BAS[ATNO][  1].a[  4] =       311.200000000000;     BAS[ATNO][  1].d[  4] =        -0.025267817689;
  BAS[ATNO][  1].a[  5] =       111.700000000000;     BAS[ATNO][  1].d[  5] =        -0.071270695536;
  BAS[ATNO][  1].a[  6] =        43.320000000000;     BAS[ATNO][  1].d[  6] =        -0.151006967760;
  BAS[ATNO][  1].a[  7] =        17.800000000000;     BAS[ATNO][  1].d[  7] =        -0.198378795896;
  BAS[ATNO][  1].a[  8] =         7.503000000000;     BAS[ATNO][  1].d[  8] =        -0.108407376688;
  BAS[ATNO][  1].a[  9] =     99920.000000000000;     BAS[ATNO][  1].d[  9] =         0.000002690713;
  BAS[ATNO][  1].a[ 10] =     14960.000000000000;     BAS[ATNO][  1].d[ 10] =         0.000021256632;
  BAS[ATNO][  1].a[ 11] =      3399.000000000000;     BAS[ATNO][  1].d[ 11] =         0.000110857370;
  BAS[ATNO][  1].a[ 12] =       958.900000000000;     BAS[ATNO][  1].d[ 12] =         0.000470874753;
  BAS[ATNO][  1].a[ 13] =       311.200000000000;     BAS[ATNO][  1].d[ 13] =         0.001645774529;
  BAS[ATNO][  1].a[ 14] =       111.700000000000;     BAS[ATNO][  1].d[ 14] =         0.004980105923;
  BAS[ATNO][  1].a[ 15] =        43.320000000000;     BAS[ATNO][  1].d[ 15] =         0.011585267885;
  BAS[ATNO][  1].a[ 16] =        17.800000000000;     BAS[ATNO][  1].d[ 16] =         0.021307889784;
  BAS[ATNO][  1].a[ 17] =         7.503000000000;     BAS[ATNO][  1].d[ 17] =         0.015375809646;
  BAS[ATNO][  1].a[ 18] =         2.337000000000;     BAS[ATNO][  1].d[ 18] =         0.796881766210;
  BAS[ATNO][  1].a[ 19] =         0.900100000000;     BAS[ATNO][  1].d[ 19] =         0.366815391395;
  BAS[ATNO][  1].a[ 20] =         0.330100000000;     BAS[ATNO][  1].d[ 20] =        -0.013561350931;
  BAS[ATNO][  1].a[ 21] =        20.180000000000;     BAS[ATNO][  1].d[ 21] =        -0.055601359699;
  BAS[ATNO][  1].a[ 22] =        54.042000000000;     BAS[ATNO][  1].d[ 22] =         0.010152452057;
  BAS[ATNO][  1].a[ 23] =       144.725000000000;     BAS[ATNO][  1].d[ 23] =         0.007814753955;

  // Basis function   3 L = s
  InitBFNGauss(BAS[ATNO][  2]);
  BAS[ATNO][  2].l  = 0;
  BAS[ATNO][  2].ng = 24;
  BAS[ATNO][  2].a[  0] =     99920.000000000000;     BAS[ATNO][  2].d[  0] =         0.000011388612;
  BAS[ATNO][  2].a[  1] =     14960.000000000000;     BAS[ATNO][  2].d[  1] =         0.000088592807;
  BAS[ATNO][  2].a[  2] =      3399.000000000000;     BAS[ATNO][  2].d[  2] =         0.000465873682;
  BAS[ATNO][  2].a[  3] =       958.900000000000;     BAS[ATNO][  2].d[  3] =         0.001942288032;
  BAS[ATNO][  2].a[  4] =       311.200000000000;     BAS[ATNO][  2].d[  4] =         0.006748679531;
  BAS[ATNO][  2].a[  5] =       111.700000000000;     BAS[ATNO][  2].d[  5] =         0.019035402662;
  BAS[ATNO][  2].a[  6] =        43.320000000000;     BAS[ATNO][  2].d[  6] =         0.040331842063;
  BAS[ATNO][  2].a[  7] =        17.800000000000;     BAS[ATNO][  2].d[  7] =         0.052984192606;
  BAS[ATNO][  2].a[  8] =         7.503000000000;     BAS[ATNO][  2].d[  8] =         0.028954089072;
  BAS[ATNO][  2].a[  9] =     99920.000000000000;     BAS[ATNO][  2].d[  9] =         0.000009400375;
  BAS[ATNO][  2].a[ 10] =     14960.000000000000;     BAS[ATNO][  2].d[ 10] =         0.000074262966;
  BAS[ATNO][  2].a[ 11] =      3399.000000000000;     BAS[ATNO][  2].d[ 11] =         0.000387295470;
  BAS[ATNO][  2].a[ 12] =       958.900000000000;     BAS[ATNO][  2].d[ 12] =         0.001645065712;
  BAS[ATNO][  2].a[ 13] =       311.200000000000;     BAS[ATNO][  2].d[ 13] =         0.005749739673;
  BAS[ATNO][  2].a[ 14] =       111.700000000000;     BAS[ATNO][  2].d[ 14] =         0.017398684989;
  BAS[ATNO][  2].a[ 15] =        43.320000000000;     BAS[ATNO][  2].d[ 15] =         0.040474726760;
  BAS[ATNO][  2].a[ 16] =        17.800000000000;     BAS[ATNO][  2].d[ 16] =         0.074442043582;
  BAS[ATNO][  2].a[ 17] =         7.503000000000;     BAS[ATNO][  2].d[ 17] =         0.053717505742;
  BAS[ATNO][  2].a[ 18] =         2.337000000000;     BAS[ATNO][  2].d[ 18] =        -0.958465011585;
  BAS[ATNO][  2].a[ 19] =         0.900100000000;     BAS[ATNO][  2].d[ 19] =         0.056278607735;
  BAS[ATNO][  2].a[ 20] =         0.330100000000;     BAS[ATNO][  2].d[ 20] =         1.163465140445;
  BAS[ATNO][  2].a[ 21] =        20.180000000000;     BAS[ATNO][  2].d[ 21] =        -0.003979932630;
  BAS[ATNO][  2].a[ 22] =        54.042000000000;     BAS[ATNO][  2].d[ 22] =        -0.005846703546;
  BAS[ATNO][  2].a[ 23] =       144.725000000000;     BAS[ATNO][  2].d[ 23] =        -0.005911271294;

  // Basis function   4 L = s
  InitBFNGauss(BAS[ATNO][  3]);
  BAS[ATNO][  3].l  = 0;
  BAS[ATNO][  3].ng = 24;
  BAS[ATNO][  3].a[  0] =     99920.000000000000;     BAS[ATNO][  3].d[  0] =        -0.000045188437;
  BAS[ATNO][  3].a[  1] =     14960.000000000000;     BAS[ATNO][  3].d[  1] =        -0.000351524006;
  BAS[ATNO][  3].a[  2] =      3399.000000000000;     BAS[ATNO][  3].d[  2] =        -0.001848522352;
  BAS[ATNO][  3].a[  3] =       958.900000000000;     BAS[ATNO][  3].d[  3] =        -0.007706730339;
  BAS[ATNO][  3].a[  4] =       311.200000000000;     BAS[ATNO][  3].d[  4] =        -0.026777827199;
  BAS[ATNO][  3].a[  5] =       111.700000000000;     BAS[ATNO][  3].d[  5] =        -0.075529845628;
  BAS[ATNO][  3].a[  6] =        43.320000000000;     BAS[ATNO][  3].d[  6] =        -0.160031172390;
  BAS[ATNO][  3].a[  7] =        17.800000000000;     BAS[ATNO][  3].d[  7] =        -0.210233949833;
  BAS[ATNO][  3].a[  8] =         7.503000000000;     BAS[ATNO][  3].d[  8] =        -0.114885821790;
  BAS[ATNO][  3].a[  9] =     99920.000000000000;     BAS[ATNO][  3].d[  9] =         0.000072375400;
  BAS[ATNO][  3].a[ 10] =     14960.000000000000;     BAS[ATNO][  3].d[ 10] =         0.000571765657;
  BAS[ATNO][  3].a[ 11] =      3399.000000000000;     BAS[ATNO][  3].d[ 11] =         0.002981866464;
  BAS[ATNO][  3].a[ 12] =       958.900000000000;     BAS[ATNO][  3].d[ 12] =         0.012665694934;
  BAS[ATNO][  3].a[ 13] =       311.200000000000;     BAS[ATNO][  3].d[ 13] =         0.044268413180;
  BAS[ATNO][  3].a[ 14] =       111.700000000000;     BAS[ATNO][  3].d[ 14] =         0.133956008393;
  BAS[ATNO][  3].a[ 15] =        43.320000000000;     BAS[ATNO][  3].d[ 15] =         0.311623139387;
  BAS[ATNO][  3].a[ 16] =        17.800000000000;     BAS[ATNO][  3].d[ 16] =         0.573144408386;
  BAS[ATNO][  3].a[ 17] =         7.503000000000;     BAS[ATNO][  3].d[ 17] =         0.413581983607;
  BAS[ATNO][  3].a[ 18] =         2.337000000000;     BAS[ATNO][  3].d[ 18] =        -2.688401469105;
  BAS[ATNO][  3].a[ 19] =         0.900100000000;     BAS[ATNO][  3].d[ 19] =         3.934354067916;
  BAS[ATNO][  3].a[ 20] =         0.330100000000;     BAS[ATNO][  3].d[ 20] =        -2.021505782093;
  BAS[ATNO][  3].a[ 21] =        20.180000000000;     BAS[ATNO][  3].d[ 21] =        -0.262646731057;
  BAS[ATNO][  3].a[ 22] =        54.042000000000;     BAS[ATNO][  3].d[ 22] =        -0.015959120006;
  BAS[ATNO][  3].a[ 23] =       144.725000000000;     BAS[ATNO][  3].d[ 23] =        -0.020474508311;

  // Basis function   5 L = s
  InitBFNGauss(BAS[ATNO][  4]);
  BAS[ATNO][  4].l  = 0;
  BAS[ATNO][  4].ng = 24;
  BAS[ATNO][  4].a[  0] =     99920.000000000000;     BAS[ATNO][  4].d[  0] =        -0.001202461858;
  BAS[ATNO][  4].a[  1] =     14960.000000000000;     BAS[ATNO][  4].d[  1] =        -0.009354034688;
  BAS[ATNO][  4].a[  2] =      3399.000000000000;     BAS[ATNO][  4].d[  2] =        -0.049189079270;
  BAS[ATNO][  4].a[  3] =       958.900000000000;     BAS[ATNO][  4].d[  3] =        -0.205075675283;
  BAS[ATNO][  4].a[  4] =       311.200000000000;     BAS[ATNO][  4].d[  4] =        -0.712556525792;
  BAS[ATNO][  4].a[  5] =       111.700000000000;     BAS[ATNO][  4].d[  5] =        -2.009845085424;
  BAS[ATNO][  4].a[  6] =        43.320000000000;     BAS[ATNO][  4].d[  6] =        -4.258420796047;
  BAS[ATNO][  4].a[  7] =        17.800000000000;     BAS[ATNO][  4].d[  7] =        -5.594313974175;
  BAS[ATNO][  4].a[  8] =         7.503000000000;     BAS[ATNO][  4].d[  8] =        -3.057105471237;
  BAS[ATNO][  4].a[  9] =     99920.000000000000;     BAS[ATNO][  4].d[  9] =         0.001125065222;
  BAS[ATNO][  4].a[ 10] =     14960.000000000000;     BAS[ATNO][  4].d[ 10] =         0.008888015255;
  BAS[ATNO][  4].a[ 11] =      3399.000000000000;     BAS[ATNO][  4].d[ 11] =         0.046352687155;
  BAS[ATNO][  4].a[ 12] =       958.900000000000;     BAS[ATNO][  4].d[ 12] =         0.196886413887;
  BAS[ATNO][  4].a[ 13] =       311.200000000000;     BAS[ATNO][  4].d[ 13] =         0.688146143166;
  BAS[ATNO][  4].a[ 14] =       111.700000000000;     BAS[ATNO][  4].d[ 14] =         2.082326966530;
  BAS[ATNO][  4].a[ 15] =        43.320000000000;     BAS[ATNO][  4].d[ 15] =         4.844137074015;
  BAS[ATNO][  4].a[ 16] =        17.800000000000;     BAS[ATNO][  4].d[ 16] =         8.909447747954;
  BAS[ATNO][  4].a[ 17] =         7.503000000000;     BAS[ATNO][  4].d[ 17] =         6.429072705805;
  BAS[ATNO][  4].a[ 18] =         2.337000000000;     BAS[ATNO][  4].d[ 18] =        -3.616739240441;
  BAS[ATNO][  4].a[ 19] =         0.900100000000;     BAS[ATNO][  4].d[ 19] =         2.356400100031;
  BAS[ATNO][  4].a[ 20] =         0.330100000000;     BAS[ATNO][  4].d[ 20] =        -0.733526705059;
  BAS[ATNO][  4].a[ 21] =        20.180000000000;     BAS[ATNO][  4].d[ 21] =        -5.044287283089;
  BAS[ATNO][  4].a[ 22] =        54.042000000000;     BAS[ATNO][  4].d[ 22] =        -0.258507202988;
  BAS[ATNO][  4].a[ 23] =       144.725000000000;     BAS[ATNO][  4].d[ 23] =        -0.197054058596;

  // Basis function   6 L = s
  InitBFNGauss(BAS[ATNO][  5]);
  BAS[ATNO][  5].l  = 0;
  BAS[ATNO][  5].ng = 24;
  BAS[ATNO][  5].a[  0] =     99920.000000000000;     BAS[ATNO][  5].d[  0] =         0.000605249695;
  BAS[ATNO][  5].a[  1] =     14960.000000000000;     BAS[ATNO][  5].d[  1] =         0.004708279607;
  BAS[ATNO][  5].a[  2] =      3399.000000000000;     BAS[ATNO][  5].d[  2] =         0.024758935211;
  BAS[ATNO][  5].a[  3] =       958.900000000000;     BAS[ATNO][  5].d[  3] =         0.103223224201;
  BAS[ATNO][  5].a[  4] =       311.200000000000;     BAS[ATNO][  5].d[  4] =         0.358659708988;
  BAS[ATNO][  5].a[  5] =       111.700000000000;     BAS[ATNO][  5].d[  5] =         1.011639676795;
  BAS[ATNO][  5].a[  6] =        43.320000000000;     BAS[ATNO][  5].d[  6] =         2.143442531472;
  BAS[ATNO][  5].a[  7] =        17.800000000000;     BAS[ATNO][  5].d[  7] =         2.815853829613;
  BAS[ATNO][  5].a[  8] =         7.503000000000;     BAS[ATNO][  5].d[  8] =         1.538769934697;
  BAS[ATNO][  5].a[  9] =     99920.000000000000;     BAS[ATNO][  5].d[  9] =        -0.000812526409;
  BAS[ATNO][  5].a[ 10] =     14960.000000000000;     BAS[ATNO][  5].d[ 10] =        -0.006418958632;
  BAS[ATNO][  5].a[ 11] =      3399.000000000000;     BAS[ATNO][  5].d[ 11] =        -0.033476088055;
  BAS[ATNO][  5].a[ 12] =       958.900000000000;     BAS[ATNO][  5].d[ 12] =        -0.142192121594;
  BAS[ATNO][  5].a[ 13] =       311.200000000000;     BAS[ATNO][  5].d[ 13] =        -0.496981778133;
  BAS[ATNO][  5].a[ 14] =       111.700000000000;     BAS[ATNO][  5].d[ 14] =        -1.503864504303;
  BAS[ATNO][  5].a[ 15] =        43.320000000000;     BAS[ATNO][  5].d[ 15] =        -3.498454333389;
  BAS[ATNO][  5].a[ 16] =        17.800000000000;     BAS[ATNO][  5].d[ 16] =        -6.434437260072;
  BAS[ATNO][  5].a[ 17] =         7.503000000000;     BAS[ATNO][  5].d[ 17] =        -4.643100912225;
  BAS[ATNO][  5].a[ 18] =         2.337000000000;     BAS[ATNO][  5].d[ 18] =         1.856794466909;
  BAS[ATNO][  5].a[ 19] =         0.900100000000;     BAS[ATNO][  5].d[ 19] =        -1.026489985916;
  BAS[ATNO][  5].a[ 20] =         0.330100000000;     BAS[ATNO][  5].d[ 20] =         0.304694558337;
  BAS[ATNO][  5].a[ 21] =        20.180000000000;     BAS[ATNO][  5].d[ 21] =         8.309892246532;
  BAS[ATNO][  5].a[ 22] =        54.042000000000;     BAS[ATNO][  5].d[ 22] =        -1.510502888490;
  BAS[ATNO][  5].a[ 23] =       144.725000000000;     BAS[ATNO][  5].d[ 23] =         0.573092955115;

  // Basis function   7 L = s
  InitBFNGauss(BAS[ATNO][  6]);
  BAS[ATNO][  6].l  = 0;
  BAS[ATNO][  6].ng = 24;
  BAS[ATNO][  6].a[  0] =     99920.000000000000;     BAS[ATNO][  6].d[  0] =         0.000568873553;
  BAS[ATNO][  6].a[  1] =     14960.000000000000;     BAS[ATNO][  6].d[  1] =         0.004425307055;
  BAS[ATNO][  6].a[  2] =      3399.000000000000;     BAS[ATNO][  6].d[  2] =         0.023270897188;
  BAS[ATNO][  6].a[  3] =       958.900000000000;     BAS[ATNO][  6].d[  3] =         0.097019399958;
  BAS[ATNO][  6].a[  4] =       311.200000000000;     BAS[ATNO][  6].d[  4] =         0.337103883594;
  BAS[ATNO][  6].a[  5] =       111.700000000000;     BAS[ATNO][  6].d[  5] =         0.950839069176;
  BAS[ATNO][  6].a[  6] =        43.320000000000;     BAS[ATNO][  6].d[  6] =         2.014619382975;
  BAS[ATNO][  6].a[  7] =        17.800000000000;     BAS[ATNO][  6].d[  7] =         2.646618055520;
  BAS[ATNO][  6].a[  8] =         7.503000000000;     BAS[ATNO][  6].d[  8] =         1.446288244664;
  BAS[ATNO][  6].a[  9] =     99920.000000000000;     BAS[ATNO][  6].d[  9] =        -0.000551002988;
  BAS[ATNO][  6].a[ 10] =     14960.000000000000;     BAS[ATNO][  6].d[ 10] =        -0.004352923607;
  BAS[ATNO][  6].a[ 11] =      3399.000000000000;     BAS[ATNO][  6].d[ 11] =        -0.022701323116;
  BAS[ATNO][  6].a[ 12] =       958.900000000000;     BAS[ATNO][  6].d[ 12] =        -0.096425522943;
  BAS[ATNO][  6].a[ 13] =       311.200000000000;     BAS[ATNO][  6].d[ 13] =        -0.337020977760;
  BAS[ATNO][  6].a[ 14] =       111.700000000000;     BAS[ATNO][  6].d[ 14] =        -1.019823880792;
  BAS[ATNO][  6].a[ 15] =        43.320000000000;     BAS[ATNO][  6].d[ 15] =        -2.372426016334;
  BAS[ATNO][  6].a[ 16] =        17.800000000000;     BAS[ATNO][  6].d[ 16] =        -4.363420214056;
  BAS[ATNO][  6].a[ 17] =         7.503000000000;     BAS[ATNO][  6].d[ 17] =        -3.148651476023;
  BAS[ATNO][  6].a[ 18] =         2.337000000000;     BAS[ATNO][  6].d[ 18] =         0.910415013187;
  BAS[ATNO][  6].a[ 19] =         0.900100000000;     BAS[ATNO][  6].d[ 19] =        -0.498758932451;
  BAS[ATNO][  6].a[ 20] =         0.330100000000;     BAS[ATNO][  6].d[ 20] =         0.148510163708;
  BAS[ATNO][  6].a[ 21] =        20.180000000000;     BAS[ATNO][  6].d[ 21] =         5.169594615983;
  BAS[ATNO][  6].a[ 22] =        54.042000000000;     BAS[ATNO][  6].d[ 22] =        -4.089324487984;
  BAS[ATNO][  6].a[ 23] =       144.725000000000;     BAS[ATNO][  6].d[ 23] =         2.572384439520;

  // Basis function   8 L = s
  InitBFNGauss(BAS[ATNO][  7]);
  BAS[ATNO][  7].l  = 0;
  BAS[ATNO][  7].ng = 24;
  BAS[ATNO][  7].a[  0] =     99920.000000000000;     BAS[ATNO][  7].d[  0] =         0.006063533548;
  BAS[ATNO][  7].a[  1] =     14960.000000000000;     BAS[ATNO][  7].d[  1] =         0.047168650506;
  BAS[ATNO][  7].a[  2] =      3399.000000000000;     BAS[ATNO][  7].d[  2] =         0.248040825831;
  BAS[ATNO][  7].a[  3] =       958.900000000000;     BAS[ATNO][  7].d[  3] =         1.034114494733;
  BAS[ATNO][  7].a[  4] =       311.200000000000;     BAS[ATNO][  7].d[  4] =         3.593137170557;
  BAS[ATNO][  7].a[  5] =       111.700000000000;     BAS[ATNO][  7].d[  5] =        10.134843794289;
  BAS[ATNO][  7].a[  6] =        43.320000000000;     BAS[ATNO][  7].d[  6] =        21.473510516447;
  BAS[ATNO][  7].a[  7] =        17.800000000000;     BAS[ATNO][  7].d[  7] =        28.209884769548;
  BAS[ATNO][  7].a[  8] =         7.503000000000;     BAS[ATNO][  7].d[  8] =        15.415758477282;
  BAS[ATNO][  7].a[  9] =     99920.000000000000;     BAS[ATNO][  7].d[  9] =        -0.002581201111;
  BAS[ATNO][  7].a[ 10] =     14960.000000000000;     BAS[ATNO][  7].d[ 10] =        -0.020391488777;
  BAS[ATNO][  7].a[ 11] =      3399.000000000000;     BAS[ATNO][  7].d[ 11] =        -0.106345485773;
  BAS[ATNO][  7].a[ 12] =       958.900000000000;     BAS[ATNO][  7].d[ 12] =        -0.451710194422;
  BAS[ATNO][  7].a[ 13] =       311.200000000000;     BAS[ATNO][  7].d[ 13] =        -1.578791659534;
  BAS[ATNO][  7].a[ 14] =       111.700000000000;     BAS[ATNO][  7].d[ 14] =        -4.777416076266;
  BAS[ATNO][  7].a[ 15] =        43.320000000000;     BAS[ATNO][  7].d[ 15] =       -11.113748563511;
  BAS[ATNO][  7].a[ 16] =        17.800000000000;     BAS[ATNO][  7].d[ 16] =       -20.440660657943;
  BAS[ATNO][  7].a[ 17] =         7.503000000000;     BAS[ATNO][  7].d[ 17] =       -14.750015628611;
  BAS[ATNO][  7].a[ 18] =         2.337000000000;     BAS[ATNO][  7].d[ 18] =        -0.453739283474;
  BAS[ATNO][  7].a[ 19] =         0.900100000000;     BAS[ATNO][  7].d[ 19] =         0.257332866422;
  BAS[ATNO][  7].a[ 20] =         0.330100000000;     BAS[ATNO][  7].d[ 20] =        -0.077626641244;
  BAS[ATNO][  7].a[ 21] =        20.180000000000;     BAS[ATNO][  7].d[ 21] =       -11.518289210406;
  BAS[ATNO][  7].a[ 22] =        54.042000000000;     BAS[ATNO][  7].d[ 22] =        -7.304947195869;
  BAS[ATNO][  7].a[ 23] =       144.725000000000;     BAS[ATNO][  7].d[ 23] =        -7.269591452762;

  // Basis function   9 L = p
  InitBFNGauss(BAS[ATNO][  8]);
  BAS[ATNO][  8].l  = 1;
  BAS[ATNO][  8].ng = 9;
  BAS[ATNO][  8].a[  0] =        99.680000000000;     BAS[ATNO][  8].d[  0] =         0.013711249818;
  BAS[ATNO][  8].a[  1] =        23.150000000000;     BAS[ATNO][  8].d[  1] =         0.096014248458;
  BAS[ATNO][  8].a[  2] =         7.108000000000;     BAS[ATNO][  8].d[  2] =         0.362136952813;
  BAS[ATNO][  8].a[  3] =         2.441000000000;     BAS[ATNO][  8].d[  3] =         0.573216368200;
  BAS[ATNO][  8].a[  4] =         0.833900000000;     BAS[ATNO][  8].d[  4] =         0.137616804553;
  BAS[ATNO][  8].a[  5] =         0.266200000000;     BAS[ATNO][  8].d[  5] =        -0.009122696509;
  BAS[ATNO][  8].a[  6] =        22.222000000000;     BAS[ATNO][  8].d[  6] =        -0.000627906266;
  BAS[ATNO][  8].a[  7] =        65.622000000000;     BAS[ATNO][  8].d[  7] =        -0.000391515778;
  BAS[ATNO][  8].a[  8] =       193.780000000000;     BAS[ATNO][  8].d[  8] =         0.001326678082;

  // Basis function  10 L = p
  InitBFNGauss(BAS[ATNO][  9]);
  BAS[ATNO][  9].l  = 1;
  BAS[ATNO][  9].ng = 9;
  BAS[ATNO][  9].a[  0] =        99.680000000000;     BAS[ATNO][  9].d[  0] =        -0.008765794942;
  BAS[ATNO][  9].a[  1] =        23.150000000000;     BAS[ATNO][  9].d[  1] =        -0.061383260073;
  BAS[ATNO][  9].a[  2] =         7.108000000000;     BAS[ATNO][  9].d[  2] =        -0.231519249627;
  BAS[ATNO][  9].a[  3] =         2.441000000000;     BAS[ATNO][  9].d[  3] =        -0.423014310426;
  BAS[ATNO][  9].a[  4] =         0.833900000000;     BAS[ATNO][  9].d[  4] =         0.786986447380;
  BAS[ATNO][  9].a[  5] =         0.266200000000;     BAS[ATNO][  9].d[  5] =         0.449274052268;
  BAS[ATNO][  9].a[  6] =        22.222000000000;     BAS[ATNO][  9].d[  6] =         0.001710838758;
  BAS[ATNO][  9].a[  7] =        65.622000000000;     BAS[ATNO][  9].d[  7] =         0.001571841323;
  BAS[ATNO][  9].a[  8] =       193.780000000000;     BAS[ATNO][  9].d[  8] =        -0.000670973492;

  // Basis function  11 L = p
  InitBFNGauss(BAS[ATNO][ 10]);
  BAS[ATNO][ 10].l  = 1;
  BAS[ATNO][ 10].ng = 9;
  BAS[ATNO][ 10].a[  0] =        99.680000000000;     BAS[ATNO][ 10].d[  0] =        -0.007796991218;
  BAS[ATNO][ 10].a[  1] =        23.150000000000;     BAS[ATNO][ 10].d[  1] =        -0.054599125680;
  BAS[ATNO][ 10].a[  2] =         7.108000000000;     BAS[ATNO][ 10].d[  2] =        -0.205931529095;
  BAS[ATNO][ 10].a[  3] =         2.441000000000;     BAS[ATNO][ 10].d[  3] =        -0.448163212962;
  BAS[ATNO][ 10].a[  4] =         0.833900000000;     BAS[ATNO][ 10].d[  4] =         1.549569362706;
  BAS[ATNO][ 10].a[  5] =         0.266200000000;     BAS[ATNO][ 10].d[  5] =        -1.366471580378;
  BAS[ATNO][ 10].a[  6] =        22.222000000000;     BAS[ATNO][ 10].d[  6] =        -0.002016192550;
  BAS[ATNO][ 10].a[  7] =        65.622000000000;     BAS[ATNO][ 10].d[  7] =         0.002019092140;
  BAS[ATNO][ 10].a[  8] =       193.780000000000;     BAS[ATNO][ 10].d[  8] =        -0.000737682897;

  // Basis function  12 L = p
  InitBFNGauss(BAS[ATNO][ 11]);
  BAS[ATNO][ 11].l  = 1;
  BAS[ATNO][ 11].ng = 9;
  BAS[ATNO][ 11].a[  0] =        99.680000000000;     BAS[ATNO][ 11].d[  0] =        -0.053590764936;
  BAS[ATNO][ 11].a[  1] =        23.150000000000;     BAS[ATNO][ 11].d[  1] =        -0.375274106151;
  BAS[ATNO][ 11].a[  2] =         7.108000000000;     BAS[ATNO][ 11].d[  2] =        -1.415421392692;
  BAS[ATNO][ 11].a[  3] =         2.441000000000;     BAS[ATNO][ 11].d[  3] =         2.175961250314;
  BAS[ATNO][ 11].a[  4] =         0.833900000000;     BAS[ATNO][ 11].d[  4] =        -1.447679826289;
  BAS[ATNO][ 11].a[  5] =         0.266200000000;     BAS[ATNO][ 11].d[  5] =         0.507884814265;
  BAS[ATNO][ 11].a[  6] =        22.222000000000;     BAS[ATNO][ 11].d[  6] =         0.324510098605;
  BAS[ATNO][ 11].a[  7] =        65.622000000000;     BAS[ATNO][ 11].d[  7] =         0.007200029091;
  BAS[ATNO][ 11].a[  8] =       193.780000000000;     BAS[ATNO][ 11].d[  8] =         0.011593751721;

  // Basis function  13 L = p
  InitBFNGauss(BAS[ATNO][ 12]);
  BAS[ATNO][ 12].l  = 1;
  BAS[ATNO][ 12].ng = 9;
  BAS[ATNO][ 12].a[  0] =        99.680000000000;     BAS[ATNO][ 12].d[  0] =        -0.072257035074;
  BAS[ATNO][ 12].a[  1] =        23.150000000000;     BAS[ATNO][ 12].d[  1] =        -0.505986325873;
  BAS[ATNO][ 12].a[  2] =         7.108000000000;     BAS[ATNO][ 12].d[  2] =        -1.908428688023;
  BAS[ATNO][ 12].a[  3] =         2.441000000000;     BAS[ATNO][ 12].d[  3] =         1.216132264757;
  BAS[ATNO][ 12].a[  4] =         0.833900000000;     BAS[ATNO][ 12].d[  4] =        -0.560546795351;
  BAS[ATNO][ 12].a[  5] =         0.266200000000;     BAS[ATNO][ 12].d[  5] =         0.173495264311;
  BAS[ATNO][ 12].a[  6] =        22.222000000000;     BAS[ATNO][ 12].d[  6] =         2.129399966571;
  BAS[ATNO][ 12].a[  7] =        65.622000000000;     BAS[ATNO][ 12].d[  7] =        -0.054325223105;
  BAS[ATNO][ 12].a[  8] =       193.780000000000;     BAS[ATNO][ 12].d[  8] =         0.075894302007;

  // Basis function  14 L = p
  InitBFNGauss(BAS[ATNO][ 13]);
  BAS[ATNO][ 13].l  = 1;
  BAS[ATNO][ 13].ng = 9;
  BAS[ATNO][ 13].a[  0] =        99.680000000000;     BAS[ATNO][ 13].d[  0] =        -0.038589218052;
  BAS[ATNO][ 13].a[  1] =        23.150000000000;     BAS[ATNO][ 13].d[  1] =        -0.270224437528;
  BAS[ATNO][ 13].a[  2] =         7.108000000000;     BAS[ATNO][ 13].d[  2] =        -1.019205544524;
  BAS[ATNO][ 13].a[  3] =         2.441000000000;     BAS[ATNO][ 13].d[  3] =         0.538050738725;
  BAS[ATNO][ 13].a[  4] =         0.833900000000;     BAS[ATNO][ 13].d[  4] =        -0.240285098226;
  BAS[ATNO][ 13].a[  5] =         0.266200000000;     BAS[ATNO][ 13].d[  5] =         0.074396563950;
  BAS[ATNO][ 13].a[  6] =        22.222000000000;     BAS[ATNO][ 13].d[  6] =         2.003699174623;
  BAS[ATNO][ 13].a[  7] =        65.622000000000;     BAS[ATNO][ 13].d[  7] =        -1.687562404569;
  BAS[ATNO][ 13].a[  8] =       193.780000000000;     BAS[ATNO][ 13].d[  8] =         0.143243940344;

  // Basis function  15 L = p
  InitBFNGauss(BAS[ATNO][ 14]);
  BAS[ATNO][ 14].l  = 1;
  BAS[ATNO][ 14].ng = 9;
  BAS[ATNO][ 14].a[  0] =        99.680000000000;     BAS[ATNO][ 14].d[  0] =         0.018137414054;
  BAS[ATNO][ 14].a[  1] =        23.150000000000;     BAS[ATNO][ 14].d[  1] =         0.127008857873;
  BAS[ATNO][ 14].a[  2] =         7.108000000000;     BAS[ATNO][ 14].d[  2] =         0.479039324986;
  BAS[ATNO][ 14].a[  3] =         2.441000000000;     BAS[ATNO][ 14].d[  3] =        -0.251079632657;
  BAS[ATNO][ 14].a[  4] =         0.833900000000;     BAS[ATNO][ 14].d[  4] =         0.113081319065;
  BAS[ATNO][ 14].a[  5] =         0.266200000000;     BAS[ATNO][ 14].d[  5] =        -0.035185381868;
  BAS[ATNO][ 14].a[  6] =        22.222000000000;     BAS[ATNO][ 14].d[  6] =        -1.066917222947;
  BAS[ATNO][ 14].a[  7] =        65.622000000000;     BAS[ATNO][ 14].d[  7] =         1.630609547043;
  BAS[ATNO][ 14].a[  8] =       193.780000000000;     BAS[ATNO][ 14].d[  8] =        -1.600787527760;

  // Basis function  16 L = d
  InitBFNGauss(BAS[ATNO][ 15]);
  BAS[ATNO][ 15].l  = 2;
  BAS[ATNO][ 15].ng = 5;
  BAS[ATNO][ 15].a[  0] =         6.471000000000;     BAS[ATNO][ 15].d[  0] =         0.059482844718;
  BAS[ATNO][ 15].a[  1] =         2.213000000000;     BAS[ATNO][ 15].d[  1] =         0.339298690033;
  BAS[ATNO][ 15].a[  2] =         0.747000000000;     BAS[ATNO][ 15].d[  2] =         0.732209204297;
  BAS[ATNO][ 15].a[  3] =        23.613000000000;     BAS[ATNO][ 15].d[  3] =         0.006508881637;
  BAS[ATNO][ 15].a[  4] =        90.107000000000;     BAS[ATNO][ 15].d[  4] =         0.000264218882;

  // Basis function  17 L = d
  InitBFNGauss(BAS[ATNO][ 16]);
  BAS[ATNO][ 16].l  = 2;
  BAS[ATNO][ 16].ng = 5;
  BAS[ATNO][ 16].a[  0] =         6.471000000000;     BAS[ATNO][ 16].d[  0] =         0.056282841275;
  BAS[ATNO][ 16].a[  1] =         2.213000000000;     BAS[ATNO][ 16].d[  1] =         1.148881692669;
  BAS[ATNO][ 16].a[  2] =         0.747000000000;     BAS[ATNO][ 16].d[  2] =        -1.022829862052;
  BAS[ATNO][ 16].a[  3] =        23.613000000000;     BAS[ATNO][ 16].d[  3] =         0.022277028311;
  BAS[ATNO][ 16].a[  4] =        90.107000000000;     BAS[ATNO][ 16].d[  4] =        -0.000720565666;

  // Basis function  18 L = d
  InitBFNGauss(BAS[ATNO][ 17]);
  BAS[ATNO][ 17].l  = 2;
  BAS[ATNO][ 17].ng = 5;
  BAS[ATNO][ 17].a[  0] =         6.471000000000;     BAS[ATNO][ 17].d[  0] =         1.357808250789;
  BAS[ATNO][ 17].a[  1] =         2.213000000000;     BAS[ATNO][ 17].d[  1] =        -1.184128826960;
  BAS[ATNO][ 17].a[  2] =         0.747000000000;     BAS[ATNO][ 17].d[  2] =         0.455822145291;
  BAS[ATNO][ 17].a[  3] =        23.613000000000;     BAS[ATNO][ 17].d[  3] =        -0.025905948874;
  BAS[ATNO][ 17].a[  4] =        90.107000000000;     BAS[ATNO][ 17].d[  4] =         0.011696737648;

  // Basis function  19 L = d
  InitBFNGauss(BAS[ATNO][ 18]);
  BAS[ATNO][ 18].l  = 2;
  BAS[ATNO][ 18].ng = 5;
  BAS[ATNO][ 18].a[  0] =         6.471000000000;     BAS[ATNO][ 18].d[  0] =        -0.880960502649;
  BAS[ATNO][ 18].a[  1] =         2.213000000000;     BAS[ATNO][ 18].d[  1] =         0.461949496247;
  BAS[ATNO][ 18].a[  2] =         0.747000000000;     BAS[ATNO][ 18].d[  2] =        -0.156749770683;
  BAS[ATNO][ 18].a[  3] =        23.613000000000;     BAS[ATNO][ 18].d[  3] =         1.245354269554;
  BAS[ATNO][ 18].a[  4] =        90.107000000000;     BAS[ATNO][ 18].d[  4] =        -0.060193947559;

  // Basis function  20 L = d
  InitBFNGauss(BAS[ATNO][ 19]);
  BAS[ATNO][ 19].l  = 2;
  BAS[ATNO][ 19].ng = 5;
  BAS[ATNO][ 19].a[  0] =         6.471000000000;     BAS[ATNO][ 19].d[  0] =         0.309179169820;
  BAS[ATNO][ 19].a[  1] =         2.213000000000;     BAS[ATNO][ 19].d[  1] =        -0.155198208475;
  BAS[ATNO][ 19].a[  2] =         0.747000000000;     BAS[ATNO][ 19].d[  2] =         0.053161101468;
  BAS[ATNO][ 19].a[  3] =        23.613000000000;     BAS[ATNO][ 19].d[  3] =        -0.661725354257;
  BAS[ATNO][ 19].a[  4] =        90.107000000000;     BAS[ATNO][ 19].d[  4] =         1.170539081647;

  // Basis function  21 L = f
  InitBFNGauss(BAS[ATNO][ 20]);
  BAS[ATNO][ 20].l  = 3;
  BAS[ATNO][ 20].ng = 3;
  BAS[ATNO][ 20].a[  0] =         4.657000000000;     BAS[ATNO][ 20].d[  0] =        -0.020042521356;
  BAS[ATNO][ 20].a[  1] =         1.524000000000;     BAS[ATNO][ 20].d[  1] =         1.010057122467;
  BAS[ATNO][ 20].a[  2] =        28.830000000000;     BAS[ATNO][ 20].d[  2] =         0.003162020934;

  // Basis function  22 L = f
  InitBFNGauss(BAS[ATNO][ 21]);
  BAS[ATNO][ 21].l  = 3;
  BAS[ATNO][ 21].ng = 3;
  BAS[ATNO][ 21].a[  0] =         4.657000000000;     BAS[ATNO][ 21].d[  0] =         1.165238212614;
  BAS[ATNO][ 21].a[  1] =         1.524000000000;     BAS[ATNO][ 21].d[  1] =        -0.580735788042;
  BAS[ATNO][ 21].a[  2] =        28.830000000000;     BAS[ATNO][ 21].d[  2] =        -0.002925090305;

  // Basis function  23 L = f
  InitBFNGauss(BAS[ATNO][ 22]);
  BAS[ATNO][ 22].l  = 3;
  BAS[ATNO][ 22].ng = 3;
  BAS[ATNO][ 22].a[  0] =         4.657000000000;     BAS[ATNO][ 22].d[  0] =        -0.244191272807;
  BAS[ATNO][ 22].a[  1] =         1.524000000000;     BAS[ATNO][ 22].d[  1] =         0.097552374086;
  BAS[ATNO][ 22].a[  2] =        28.830000000000;     BAS[ATNO][ 22].d[  2] =         1.022630873423;

  // Basis function  24 L = g
  InitBFNGauss(BAS[ATNO][ 23]);
  BAS[ATNO][ 23].l  = 4;
  BAS[ATNO][ 23].ng = 1;
  BAS[ATNO][ 23].a[  0] =         2.983000000000;     BAS[ATNO][ 23].d[  0] =         1.000000000000;

-------
TIMINGS
-------

Total SCF time: 0 days 0 hours 0 min 1 sec 

Total time                  ....       1.416 sec
Sum of individual times     ....       1.237 sec  ( 87.4%)

Fock matrix formation       ....       0.811 sec  ( 57.2%)
  XC integration            ....       0.024 sec  (  3.0% of F)
    Basis function eval.    ....       0.003 sec  ( 12.3% of XC)
    Density eval.           ....       0.002 sec  (  6.7% of XC)
    XC-Functional eval.     ....       0.001 sec  (  5.2% of XC)
    XC-Potential eval.      ....       0.003 sec  ( 11.2% of XC)
Diagonalization             ....       0.002 sec  (  0.1%)
Density matrix formation    ....       0.001 sec  (  0.1%)
Population analysis         ....       0.001 sec  (  0.1%)
Initial guess               ....       0.087 sec  (  6.1%)
Orbital Transformation      ....       0.000 sec  (  0.0%)
Orbital Orthonormalization  ....       0.000 sec  (  0.0%)
DIIS solution               ....       0.000 sec  (  0.0%)
SOSCF solution              ....       0.001 sec  (  0.1%)
Grid generation             ....       0.334 sec  ( 23.6%)

-------------------------   --------------------
FINAL SINGLE POINT ENERGY       -97.296973195090
-------------------------   --------------------


                            ***************************************
                            *     ORCA property calculations      *
                            ***************************************

                                    ---------------------
                                    Active property flags
                                    ---------------------
   (+) Dipole Moment


------------------------------------------------------------------------------
                       ORCA ELECTRIC PROPERTIES CALCULATION
------------------------------------------------------------------------------

Dipole Moment Calculation                       ... on
Quadrupole Moment Calculation                   ... off
Polarizability Calculation                      ... off
GBWName                                         ... Ne_cc-pcvqz_34.25899725_.gbw
Electron density file                           ... Ne_cc-pcvqz_34.25899725_.scfp
The origin for moment calculation is the CENTER OF MASS  = ( 0.000000,  0.000000  0.000000)

-------------
DIPOLE MOMENT
-------------
                                X             Y             Z
Electronic contribution:     -0.00000      -0.00000      -0.00000
Nuclear contribution   :      0.00000       0.00000       0.00000
                        -----------------------------------------
Total Dipole Moment    :     -0.00000      -0.00000      -0.00000
                        -----------------------------------------
Magnitude (a.u.)       :      0.00000
Magnitude (Debye)      :      0.00000



--------------------
Rotational spectrum 
--------------------
 
Rotational constants in cm-1:     0.000000     0.000000     0.000000 
Rotational constants in MHz :     0.000000     0.000000     0.000000 

 Dipole components along the rotational axes: 
x,y,z [a.u.] :    -0.000000    -0.000000    -0.000000 
x,y,z [Debye]:    -0.000000    -0.000000    -0.000000 

 

Timings for individual modules:

Sum of individual times         ...        2.582 sec (=   0.043 min)
GTO integral calculation        ...        0.511 sec (=   0.009 min)  19.8 %
Relativistic integrals          ...        0.385 sec (=   0.006 min)  14.9 %
SCF iterations                  ...        1.686 sec (=   0.028 min)  65.3 %
                             ****ORCA TERMINATED NORMALLY****
TOTAL RUN TIME: 0 days 0 hours 0 minutes 2 seconds 898 msec
