
                                 *****************
                                 * O   R   C   A *
                                 *****************

           --- An Ab Initio, DFT and Semiempirical electronic structure package ---

                  #######################################################
                  #                        -***-                        #
                  #          Department of theory and spectroscopy      #
                  #               Directorship: Frank Neese             #
                  #        Max Planck Institute fuer Kohlenforschung    #
                  #                Kaiser Wilhelm Platz 1               #
                  #                 D-45470 Muelheim/Ruhr               #
                  #                      Germany                        #
                  #                                                     #
                  #                  All rights reserved                #
                  #                        -***-                        #
                  #######################################################


                         Program Version 4.2.1 -  RELEASE  -


 With contributions from (in alphabetic order):
   Daniel Aravena         : Magnetic Suceptibility
   Michael Atanasov       : Ab Initio Ligand Field Theory (pilot matlab implementation)
   Alexander A. Auer      : GIAO ZORA, VPT2
   Ute Becker             : Parallelization
   Giovanni Bistoni       : ED, misc. LED, open-shell LED, HFLD
   Martin Brehm           : Molecular dynamics
   Dmytro Bykov           : SCF Hessian
   Vijay G. Chilkuri      : MRCI spin determinant printing, contributions to CSF-ICE
   Dipayan Datta          : RHF DLPNO-CCSD density
   Achintya Kumar Dutta   : EOM-CC, STEOM-CC
   Dmitry Ganyushin       : Spin-Orbit,Spin-Spin,Magnetic field MRCI
   Miquel Garcia          : C-PCM Hessian, Gaussian charge scheme
   Yang Guo               : DLPNO-NEVPT2, CIM, IAO-localization
   Andreas Hansen         : Spin unrestricted coupled pair/coupled cluster methods
   Benjamin Helmich-Paris : CASSCF linear response (MC-RPA)
   Lee Huntington         : MR-EOM, pCC
   Robert Izsak           : Overlap fitted RIJCOSX, COSX-SCS-MP3, EOM
   Christian Kollmar      : KDIIS, OOCD, Brueckner-CCSD(T), CCSD density
   Simone Kossmann        : Meta GGA functionals, TD-DFT gradient, OOMP2, MP2 Hessian
   Martin Krupicka        : AUTO-CI
   Lucas Lang             : DCDCAS
   Dagmar Lenk            : GEPOL surface, SMD
   Dimitrios Liakos       : Extrapolation schemes; Compound Job, initial MDCI parallelization
   Dimitrios Manganas     : Further ROCIS development; embedding schemes
   Dimitrios Pantazis     : SARC Basis sets
   Taras Petrenko         : DFT Hessian,TD-DFT gradient, ASA, ECA, R-Raman, ABS, FL, XAS/XES, NRVS
   Peter Pinski           : DLPNO-MP2, DLPNO-MP2 Gradient
   Christoph Reimann      : Effective Core Potentials
   Marius Retegan         : Local ZFS, SOC
   Christoph Riplinger    : Optimizer, TS searches, QM/MM, DLPNO-CCSD(T), (RO)-DLPNO pert. Triples
   Tobias Risthaus        : Range-separated hybrids, TD-DFT gradient, RPA, STAB
   Michael Roemelt        : Original ROCIS implementation
   Masaaki Saitow         : Open-shell DLPNO-CCSD energy and density
   Barbara Sandhoefer     : DKH picture change effects
   Avijit Sen             : IP-ROCIS
   Kantharuban Sivalingam : CASSCF convergence, NEVPT2, FIC-MRCI
   Bernardo de Souza      : ESD, SOC TD-DFT
   Georgi Stoychev        : AutoAux, RI-MP2 NMR
   Willem Van den Heuvel  : Paramagnetic NMR
   Boris Wezisla          : Elementary symmetry handling
   Frank Wennmohs         : Technical directorship


 We gratefully acknowledge several colleagues who have allowed us to
 interface, adapt or use parts of their codes:
   Stefan Grimme, W. Hujo, H. Kruse,             : VdW corrections, initial TS optimization,
                  C. Bannwarth                     DFT functionals, gCP, sTDA/sTD-DF
   Ed Valeev, F. Pavosevic, A. Kumar             : LibInt (2-el integral package), F12 methods
   Garnet Chan, S. Sharma, J. Yang, R. Olivares  : DMRG
   Ulf Ekstrom                                   : XCFun DFT Library
   Mihaly Kallay                                 : mrcc  (arbitrary order and MRCC methods)
   Andreas Klamt, Michael Diedenhofen            : otool_cosmo (COSMO solvation model)
   Jiri Pittner, Ondrej Demel                    : Mk-CCSD
   Frank Weinhold                                : gennbo (NPA and NBO analysis)
   Christopher J. Cramer and Donald G. Truhlar   : smd solvation model
   Lars Goerigk                                  : TD-DFT with DH, B97 family of functionals
   V. Asgeirsson, H. Jonsson                     : NEB implementation
   FAccTs GmbH                                   : IRC, NEB, NEB-TS, Multilevel, MM, QM/MM, CI optimization
   S Lehtola, MJT Oliveira, MAL Marques          : LibXC Library


 Your calculation uses the libint2 library for the computation of 2-el integrals
 For citations please refer to: http://libint.valeyev.net

 Your ORCA version has been built with support for libXC version: 4.2.3
 For citations please refer to: https://tddft.org/programs/libxc/

 This ORCA versions uses:
   CBLAS   interface :  Fast vector & matrix operations
   LAPACKE interface :  Fast linear algebra routines
   SCALAPACK package :  Parallel linear algebra routines


----- Orbital basis set information -----
Your calculation utilizes the basis: cc-pCVDZ 
             H : cc-pVDZ. Obtained from the ccRepo (grant-hill.group.shef.ac.uk/ccrepo) Feb. 2017
                 T. H. Dunning, Jr., J. Chem. Phys. 90, 1007 (1989)
            He : cc-pVDZ. Obtained from the ccRepo (grant-hill.group.shef.ac.uk/ccrepo) Feb. 2017
                 D. E. Woon, T. H. Dunning, Jr., J. Chem. Phys. 100, 2975 (1994)
  Li-Be, Na-Mg : Obtained from the ccRepo (grant-hill.group.shef.ac.uk/ccrepo) Feb. 2017
                 B. P. Prascher, D. E. Woon, K. A. Peterson, T. H. Dunning, Jr., A. K. Wilson, Theor. Chem. Acc. 128, 69 (2011)
          B-Ne : Obtained from the ccRepo (grant-hill.group.shef.ac.uk/ccrepo) Feb. 2017
                 D. E. Woon, T. H. Dunning, Jr., J. Chem. Phys. 103, 4572 (1995)
                  K. A. Peterson, T. H. Dunning, Jr., J. Chem. Phys. 117, 10548 (2002)
         Al-Ar : Obtained from the EMSL Basis Set Exchange (bse.pnl.gov) Feb. 2017
                 K. A. Peterson, T. H. Dunning, Jr., J. Chem. Phys. 117, 10548 (2002)
            Ca : Obtained from the Peterson Research Group Website (tyr0.chem.wsu.edu/~kipeters) Feb. 2017
                 J. Koput, K. A. Peterson, J. Phys. Chem. 106, 9595 (2002)
         Ga-Kr : Obtained from the Peterson Research Group Website (tyr0.chem.wsu.edu/~kipeters) Feb. 2017
                 N. J. DeYonker, K. A. Peterson, A. K. Wilson, J. Phys. Chem. A 111, 11383 (2007)

================================================================================
                                        WARNINGS
                       Please study these warnings very carefully!
================================================================================


INFO   : the flag for use of LIBINT has been found!

================================================================================
                                       INPUT FILE
================================================================================
NAME = Ne_cc-pcvdz_34.25899725_.inp
|  1> ! LDA cc-pcvdz nori grid5 finalgrid6 verytightscf
|  2> %Pal NProcs 18 End
|  3> 
|  4> % REL
|  5>   Method ZORA
|  6>   ModelPot 1, 0, 0, 0
|  7>   velit 34.25899725
|  8> END
|  9> 
| 10> *xyz 8 1
| 11> Ne 0.0 0.0 0.0
| 12> **                         ****END OF INPUT****
================================================================================

                       ****************************
                       * Single Point Calculation *
                       ****************************

---------------------------------
CARTESIAN COORDINATES (ANGSTROEM)
---------------------------------
  Ne     0.000000    0.000000    0.000000

----------------------------
CARTESIAN COORDINATES (A.U.)
----------------------------
  NO LB      ZA    FRAG     MASS         X           Y           Z
   0 Ne   10.0000    0    20.179    0.000000    0.000000    0.000000

--------------------------------
INTERNAL COORDINATES (ANGSTROEM)
--------------------------------
 Ne     0   0   0     0.000000000000     0.00000000     0.00000000

---------------------------
INTERNAL COORDINATES (A.U.)
---------------------------
 Ne     0   0   0     0.000000000000     0.00000000     0.00000000

---------------------
BASIS SET INFORMATION
---------------------
There are 1 groups of distinct atoms

 Group   1 Type Ne  : 18s5p1d contracted to 4s3p1d pattern {8811/311/1}

Atom   0Ne   basis set group =>   1


           ************************************************************
           *        Program running with 18 parallel MPI-processes    *
           *              working on a common directory               *
           ************************************************************
------------------------------------------------------------------------------
                           ORCA GTO INTEGRAL CALCULATION
------------------------------------------------------------------------------

                         BASIS SET STATISTICS AND STARTUP INFO

 # of primitive gaussian shells          ...   24
 # of primitive gaussian functions       ...   38
 # of contracted shells                  ...    8
 # of contracted basis functions         ...   18
 Highest angular momentum                ...    2
 Maximum contraction depth               ...    8
 Integral package used                   ... LIBINT
 Integral threshhold            Thresh   ...  1.000e-12
 Primitive cut-off              TCut     ...  1.000e-14


------------------------------ INTEGRAL EVALUATION ----------------------------


 * One electron integrals 
 Pre-screening matrix                    ... done
 Shell pair data                         ... done (   0.000 sec)



           ************************************************************
           *        Program running with 18 parallel MPI-processes    *
           *              working on a common directory               *
           ************************************************************
------------------------------------------------------------------------------
                          ORCA RELATIVISTIC HAMILTONIAN
------------------------------------------------------------------------------

Relativistic Method            ... ZORA(MP)
Treatment of potential         ... Van Wuellen
Nucleus model                  ... Point Nucleus
Speed of light used            ...  34.25899725000000


            *************************************************
            *         ZERO ORDER REGULAR APPROXIMATION      *
            *                     ZORA(MP)                  *
            *            Programmed by FN according to      *
            *                   C. van Wuellen              *
            *       J. Chem. Phys. (1998) vol 109, 392-399  *
            *************************************************

Terms included in model potential: +V(e,N)
Basis function cutoff value   ... 1.000000e-12
Loading the fitted atomic densities  (DKH4)  ... done
Calculating the cutoffs                      ... done
Number of fit functions                      ... 11
Setting up the integration grid ... done


           ************************************************************
           *        Program running with 18 parallel MPI-processes    *
           *              working on a common directory               *
           ************************************************************
-------------------------------------------------------------------------------
                                 ORCA SCF
-------------------------------------------------------------------------------

------------
SCF SETTINGS
------------
Hamiltonian:
 Density Functional     Method          .... DFT(GTOs)
 Exchange Functional    Exchange        .... Slater
   X-Alpha parameter    XAlpha          ....  0.666667
 Correlation Functional Correlation     .... VWN-5
 Gradients option       PostSCFGGA      .... off
   Density functional embedding theory  .... OFF

Relativistic Settings:
 Scalar relativistic method             .... ZORA
 Speed of light used       Velit        ....       34.2589973
Orbital energies will be scaled


General Settings:
 Integral files         IntName         .... Ne_cc-pcvdz_34.25899725_
 Hartree-Fock type      HFTyp           .... RHF
 Total Charge           Charge          ....    8
 Multiplicity           Mult            ....    1
 Number of Electrons    NEL             ....    2
 Basis Dimension        Dim             ....   18
 Nuclear Repulsion      ENuc            ....      0.0000000000 Eh

Convergence Acceleration:
 DIIS                   CNVDIIS         .... on
   Start iteration      DIISMaxIt       ....    12
   Startup error        DIISStart       ....  0.200000
   # of expansion vecs  DIISMaxEq       ....     5
   Bias factor          DIISBfac        ....   1.050
   Max. coefficient     DIISMaxC        ....  10.000
 Newton-Raphson         CNVNR           .... off
 SOSCF                  CNVSOSCF        .... on
   Start iteration      SOSCFMaxIt      ....   150
   Startup grad/error   SOSCFStart      ....  0.003300
 Level Shifting         CNVShift        .... on
   Level shift para.    LevelShift      ....    0.2500
   Turn off err/grad.   ShiftErr        ....    0.0010
 Zerner damping         CNVZerner       .... off
 Static damping         CNVDamp         .... on
   Fraction old density DampFac         ....    0.7000
   Max. Damping (<1)    DampMax         ....    0.9800
   Min. Damping (>=0)   DampMin         ....    0.0000
   Turn off err/grad.   DampErr         ....    0.1000
 Fernandez-Rico         CNVRico         .... off

SCF Procedure:
 Maximum # iterations   MaxIter         ....   125
 SCF integral mode      SCFMode         .... Direct
   Integral package                     .... LIBINT
 Reset frequency        DirectResetFreq ....    20
 Integral Threshold     Thresh          ....  1.000e-12 Eh
 Primitive CutOff       TCut            ....  1.000e-14 Eh

Convergence Tolerance:
 Convergence Check Mode ConvCheckMode   .... Total+1el-Energy
 Convergence forced     ConvForced      .... 0
 Energy Change          TolE            ....  1.000e-09 Eh
 1-El. energy change                    ....  1.000e-06 Eh
 Orbital Gradient       TolG            ....  2.000e-06
 Orbital Rotation angle TolX            ....  2.000e-06
 DIIS Error             TolErr          ....  1.000e-08


Diagonalization of the overlap matrix:
Smallest eigenvalue                        ... 5.809e-02
Time for diagonalization                   ...    0.000 sec
Threshold for overlap eigenvalues          ... 1.000e-08
Number of eigenvalues below threshold      ... 0
Time for construction of square roots      ...    0.001 sec
Total time needed                          ...    0.001 sec

-------------------
DFT GRID GENERATION
-------------------

General Integration Accuracy     IntAcc      ...  5.010
Radial Grid Type                 RadialGrid  ... Gauss-Chebyshev
Angular Grid (max. acc.)         AngularGrid ... Lebedev-434
Angular grid pruning method      GridPruning ... 3 (G Style)
Weight generation scheme         WeightScheme... Becke
Basis function cutoff            BFCut       ...    1.0000e-12
Integration weight cutoff        WCut        ...    1.0000e-14
Grids for H and He will be reduced by one unit

# of grid points (after initial pruning)     ...  10818 (   0.0 sec)
# of grid points (after weights+screening)   ...  10818 (   0.0 sec)
Grid point division into batches done        ...    0.1 sec
Reduced shell lists constructed in    0.1 sec

Total number of grid points                  ...    10818
Total number of batches                      ...      170
Average number of points per batch           ...       63
Average number of grid points per atom       ...    10818
Average number of shells per batch           ...     0.00 ( 0.00%)
Average number of basis functions per batch  ...     0.00 ( 0.00%)
Average number of large shells per batch     ...     0.00 ( -nan%)
Average number of large basis fcns per batch ...     0.00 ( -nan%)
Maximum spatial batch extension              ...  16.29, 16.29, 16.29 au
Average spatial batch extension              ...   0.85,  0.86,  0.85 au

Time for grid setup =    0.118 sec

------------------------------
INITIAL GUESS: MODEL POTENTIAL
------------------------------
Loading ZORA relativistic densities                ... done
Calculating cut-offs                               ... done
Setting up the integral package                    ... done
Initializing the effective Hamiltonian             ... done
Starting the Coulomb interaction                   ... done (   0.0 sec)
Reading the grid                                   ... done
Mapping shells                                     ... done
Starting the XC term evaluation                    ... done (   0.0 sec)
  promolecular density results
     # of electrons  =     10.000000324
     EX              =    -11.053709298
     EC              =     -0.746638772
     EX+EC           =    -11.800348070
Transforming the Hamiltonian                       ... done (   0.0 sec)
Diagonalizing the Hamiltonian                      ... done (   0.0 sec)
Back transforming the eigenvectors                 ... done (   0.0 sec)
Now organizing SCF variables                       ... done
                      ------------------
                      INITIAL GUESS DONE (   0.2 sec)
                      ------------------
--------------
SCF ITERATIONS
--------------
ITER       Energy         Delta-E        Max-DP      RMS-DP      [F,P]     Damp
               ***  Starting incremental Fock matrix formation  ***
  0    -97.1198407038   0.000000000000 0.00676279  0.00052080  0.5048535 0.7000
  1    -97.1214342863  -0.001593582487 0.00475314  0.00035742  0.3512472 0.7000
  2    -97.1225310786  -0.001096792313 0.00330602  0.00024350  0.2436408 0.7000
                               ***Turning on DIIS***
  3    -97.1232900750  -0.000758996469 0.00229957  0.00016600  0.1690302 0.7000
  4    -97.1238172907  -0.000527215620 0.00158526  0.00010918  0.1172903 0.7000
  5    -97.1241844341  -0.000367143431 0.00368073  0.00024989  0.0818758 0.0000
                      *** Initiating the SOSCF procedure ***
                           *** Shutting down DIIS ***
                      *** Re-Reading the Fockian *** 
                      *** Removing any level shift *** 
ITER      Energy       Delta-E        Grad      Rot      Max-DP    RMS-DP
  6    -97.12503558  -0.0008511418  0.000243  0.000243  0.000036  0.000002
               *** Restarting incremental Fock matrix formation ***
  7    -97.12503558  -0.0000000021  0.000008  0.000000  0.000001  0.000000
                 **** Energy Check signals convergence ****
              ***Rediagonalizing the Fockian in SOSCF/NRSCF***

               *****************************************************
               *                     SUCCESS                       *
               *           SCF CONVERGED AFTER   8 CYCLES          *
               *****************************************************

Setting up the final grid:

General Integration Accuracy     IntAcc      ...  5.340
Radial Grid Type                 RadialGrid  ... Gauss-Chebyshev
Angular Grid (max. acc.)         AngularGrid ... Lebedev-590
Angular grid pruning method      GridPruning ... 3 (G Style)
Weight generation scheme         WeightScheme... Becke
Basis function cutoff            BFCut       ...    1.0000e-12
Integration weight cutoff        WCut        ...    1.0000e-14
Grids for H and He will be reduced by one unit

# of grid points (after initial pruning)     ...  16840 (   0.0 sec)
# of grid points (after weights+screening)   ...  16840 (   0.0 sec)
Grid point division into batches done        ...    0.2 sec
Reduced shell lists constructed in    0.2 sec

Total number of grid points                  ...    16840
Total number of batches                      ...      264
Average number of points per batch           ...       63
Average number of grid points per atom       ...    16840
Average number of shells per batch           ...     0.00 ( 0.00%)
Average number of basis functions per batch  ...     0.00 ( 0.00%)
Average number of large shells per batch     ...     0.00 ( -nan%)
Average number of large basis fcns per batch ...     0.00 ( -nan%)
Maximum spatial batch extension              ...  16.63, 16.63, 16.63 au
Average spatial batch extension              ...   0.74,  0.74,  0.69 au

Final grid set up in    0.2 sec
Final integration                            ... done (   0.0 sec)
Change in XC energy                          ...    -0.000004185
Integrated number of electrons               ...     1.999999921
Previous integrated no of electrons          ...     1.999999058

----------------
TOTAL SCF ENERGY
----------------

Total Energy       :          -97.12503976 Eh           -2642.90669 eV

Components:
Nuclear Repulsion  :            0.00000000 Eh               0.00000 eV
Electronic Energy  :          -97.12503976 Eh           -2642.90669 eV
One Electron Energy:         -104.14191174 Eh           -2833.84549 eV
Two Electron Energy:            7.01687197 Eh             190.93879 eV

Virial components:
Potential Energy   :         -196.49533588 Eh           -5346.90992 eV
Kinetic Energy     :           99.37029612 Eh            2704.00323 eV
Virial Ratio       :            1.97740516


DFT components:
N(Alpha)           :        0.999999960460 electrons
N(Beta)            :        0.999999960460 electrons
N(Total)           :        1.999999920920 electrons
E(X)               :       -5.433329158317 Eh       
E(C)               :       -0.205554111201 Eh       
E(XC)              :       -5.638883269518 Eh       
DFET-embed. en.    :        0.000000000000 Eh       

---------------
SCF CONVERGENCE
---------------

  Last Energy change         ...   -2.1458e-12  Tolerance :   1.0000e-09
  Last MAX-Density change    ...    5.9914e-08  Tolerance :   1.0000e-08
  Last RMS-Density change    ...    3.9253e-09  Tolerance :   1.0000e-09
  Last Orbital Gradient      ...    4.3014e-07  Tolerance :   2.0000e-06
  Last Orbital Rotation      ...    5.3629e-09  Tolerance :   2.0000e-06

             **** THE GBW FILE WAS UPDATED (Ne_cc-pcvdz_34.25899725_.gbw) ****
             **** DENSITY FILE WAS UPDATED (Ne_cc-pcvdz_34.25899725_.scfp) ****
             **** ENERGY FILE WAS UPDATED (Ne_cc-pcvdz_34.25899725_.en.tmp) ****
             **** THE GBW FILE WAS UPDATED (Ne_cc-pcvdz_34.25899725_.gbw) ****
             **** DENSITY FILE WAS UPDATED (Ne_cc-pcvdz_34.25899725_.scfp) ****
----------------
ORBITAL ENERGIES
----------------

  NO   OCC          E(Eh)            E(eV) 
   0   2.0000     -43.149432     -1174.1557 
   1   0.0000      -9.267096      -252.1705 
   2   0.0000      -8.528879      -232.0826 
   3   0.0000      -8.528879      -232.0826 
   4   0.0000      -8.528879      -232.0826 
   5   0.0000      -3.869198      -105.2862 
   6   0.0000      -3.569731       -97.1373 
   7   0.0000      -3.569731       -97.1373 
   8   0.0000      -3.569731       -97.1373 
   9   0.0000      -2.546965       -69.3064 
  10   0.0000      -2.546965       -69.3064 
  11   0.0000      -2.546965       -69.3064 
  12   0.0000      -2.546965       -69.3064 
  13   0.0000      -2.546965       -69.3064 
  14   0.0000      32.890711       895.0018 
  15   0.0000      42.955431      1168.8767 
  16   0.0000      42.955431      1168.8767 
  17   0.0000      42.955431      1168.8767 

                    ********************************
                    * MULLIKEN POPULATION ANALYSIS *
                    ********************************

-----------------------
MULLIKEN ATOMIC CHARGES
-----------------------
   0 Ne:    8.000000
Sum of atomic charges:    8.0000000

--------------------------------
MULLIKEN REDUCED ORBITAL CHARGES
--------------------------------
  0 Nes       :     2.000000  s :     2.000000
      pz      :     0.000000  p :     0.000000
      px      :     0.000000
      py      :     0.000000
      dz2     :     0.000000  d :     0.000000
      dxz     :     0.000000
      dyz     :     0.000000
      dx2y2   :     0.000000
      dxy     :     0.000000


                     *******************************
                     * LOEWDIN POPULATION ANALYSIS *
                     *******************************

----------------------
LOEWDIN ATOMIC CHARGES
----------------------
   0 Ne:    8.000000

-------------------------------
LOEWDIN REDUCED ORBITAL CHARGES
-------------------------------
  0 Nes       :     2.000000  s :     2.000000
      pz      :     0.000000  p :     0.000000
      px      :     0.000000
      py      :     0.000000
      dz2     :     0.000000  d :     0.000000
      dxz     :     0.000000
      dyz     :     0.000000
      dx2y2   :     0.000000
      dxy     :     0.000000


                      *****************************
                      * MAYER POPULATION ANALYSIS *
                      *****************************

  NA   - Mulliken gross atomic population
  ZA   - Total nuclear charge
  QA   - Mulliken gross atomic charge
  VA   - Mayer's total valence
  BVA  - Mayer's bonded valence
  FA   - Mayer's free valence

  ATOM       NA         ZA         QA         VA         BVA        FA
  0 Ne     2.0000    10.0000     8.0000     0.0000     0.0000     0.0000

  Mayer bond orders larger than 0.100000


--------------------------
ATOM BASIS FOR ELEMENT Ne
--------------------------
 NewGTO Ne
 S 18
    1      17880.000000000000         0.000814824291
    2       2683.000000000000         0.006267964088
    3        611.500000000000         0.031889661223
    4        173.500000000000         0.119838791995
    5         56.640000000000         0.321189823686
    6         20.420000000000         0.494993611409
    7          7.810000000000         0.284885978840
    8          1.653000000000         0.016631027490
    9      17880.000000000000         0.000004377609
   10       2683.000000000000         0.000034537301
   11        611.500000000000         0.000171464846
   12        173.500000000000         0.000704057003
   13         56.640000000000         0.001939586310
   14         20.420000000000         0.004459740320
   15          7.810000000000         0.002724247315
   16          1.653000000000        -0.014432112336
   17          0.486900000000        -0.001005090103
   18         12.854000000000        -0.116821924749
 S 18
    1      17880.000000000000        -0.000067333598
    2       2683.000000000000        -0.000517957770
    3        611.500000000000        -0.002635225342
    4        173.500000000000        -0.009902965709
    5         56.640000000000        -0.026541754611
    6         20.420000000000        -0.040904156978
    7          7.810000000000        -0.023541759996
    8          1.653000000000        -0.001374317049
    9      17880.000000000000         0.000328869611
   10       2683.000000000000         0.002594628266
   11        611.500000000000         0.012881363762
   12        173.500000000000         0.052892558371
   13         56.640000000000         0.145712181915
   14         20.420000000000         0.335039739929
   15          7.810000000000         0.204660147594
   16          1.653000000000        -1.084218097248
   17          0.486900000000        -0.017973951939
   18         12.854000000000        -0.152773876990
 S 18
    1      17880.000000000000        -0.000296195237
    2       2683.000000000000        -0.002278455771
    3        611.500000000000        -0.011592150435
    4        173.500000000000        -0.043562372615
    5         56.640000000000        -0.116755105310
    6         20.420000000000        -0.179934191453
    7          7.810000000000        -0.103558363335
    8          1.653000000000        -0.006045513347
    9      17880.000000000000         0.000407439973
   10       2683.000000000000         0.003214511883
   11        611.500000000000         0.015958855237
   12        173.500000000000         0.065529139440
   13         56.640000000000         0.180524334254
   14         20.420000000000         0.415084210560
   15          7.810000000000         0.253555580646
   16          1.653000000000        -1.343249051790
   17          0.486900000000         1.601300626735
   18         12.854000000000        -0.192705276751
 S 18
    1      17880.000000000000        -0.002046764138
    2       2683.000000000000        -0.015744552862
    3        611.500000000000        -0.080103914094
    4        173.500000000000        -0.301024091535
    5         56.640000000000        -0.806799478498
    6         20.420000000000        -1.243378706590
    7          7.810000000000        -0.715607538625
    8          1.653000000000        -0.041775620884
    9      17880.000000000000         0.000215203769
   10       2683.000000000000         0.001697857639
   11        611.500000000000         0.008429231328
   12        173.500000000000         0.034611522373
   13         56.640000000000         0.095350283663
   14         20.420000000000         0.219241341531
   15          7.810000000000         0.133924307982
   16          1.653000000000        -0.709484284472
   17          0.486900000000         0.362397120026
   18         12.854000000000         2.810831656561
 P 5
    1         28.390000000000         0.067453836970
    2          6.270000000000         0.351533621570
    3          1.695000000000         0.744607694913
    4          0.431700000000        -0.053434332276
    5         40.184000000000         0.019106416381
 P 5
    1         28.390000000000         0.033124739814
    2          6.270000000000         0.172628574938
    3          1.695000000000         0.365656532900
    4          0.431700000000        -1.140284999904
    5         40.184000000000         0.008091172792
 P 5
    1         28.390000000000        -0.024921383514
    2          6.270000000000        -0.129877032869
    3          1.695000000000        -0.275101532635
    4          0.431700000000         0.161297729071
    5         40.184000000000         1.046875203932
 D 1
    1          2.202000000000         1.000000000000
 end
  // -----------------------------------------------
  // The basis set
  // -----------------------------------------------
  BAS[ATNO] = new BFNGauss[NSH];
  // Basis function   1 L = s
  InitBFNGauss(BAS[ATNO][  0]);
  BAS[ATNO][  0].l  = 0;
  BAS[ATNO][  0].ng = 18;
  BAS[ATNO][  0].a[  0] =     17880.000000000000;     BAS[ATNO][  0].d[  0] =         0.000814824291;
  BAS[ATNO][  0].a[  1] =      2683.000000000000;     BAS[ATNO][  0].d[  1] =         0.006267964088;
  BAS[ATNO][  0].a[  2] =       611.500000000000;     BAS[ATNO][  0].d[  2] =         0.031889661223;
  BAS[ATNO][  0].a[  3] =       173.500000000000;     BAS[ATNO][  0].d[  3] =         0.119838791995;
  BAS[ATNO][  0].a[  4] =        56.640000000000;     BAS[ATNO][  0].d[  4] =         0.321189823686;
  BAS[ATNO][  0].a[  5] =        20.420000000000;     BAS[ATNO][  0].d[  5] =         0.494993611409;
  BAS[ATNO][  0].a[  6] =         7.810000000000;     BAS[ATNO][  0].d[  6] =         0.284885978840;
  BAS[ATNO][  0].a[  7] =         1.653000000000;     BAS[ATNO][  0].d[  7] =         0.016631027490;
  BAS[ATNO][  0].a[  8] =     17880.000000000000;     BAS[ATNO][  0].d[  8] =         0.000004377609;
  BAS[ATNO][  0].a[  9] =      2683.000000000000;     BAS[ATNO][  0].d[  9] =         0.000034537301;
  BAS[ATNO][  0].a[ 10] =       611.500000000000;     BAS[ATNO][  0].d[ 10] =         0.000171464846;
  BAS[ATNO][  0].a[ 11] =       173.500000000000;     BAS[ATNO][  0].d[ 11] =         0.000704057003;
  BAS[ATNO][  0].a[ 12] =        56.640000000000;     BAS[ATNO][  0].d[ 12] =         0.001939586310;
  BAS[ATNO][  0].a[ 13] =        20.420000000000;     BAS[ATNO][  0].d[ 13] =         0.004459740320;
  BAS[ATNO][  0].a[ 14] =         7.810000000000;     BAS[ATNO][  0].d[ 14] =         0.002724247315;
  BAS[ATNO][  0].a[ 15] =         1.653000000000;     BAS[ATNO][  0].d[ 15] =        -0.014432112336;
  BAS[ATNO][  0].a[ 16] =         0.486900000000;     BAS[ATNO][  0].d[ 16] =        -0.001005090103;
  BAS[ATNO][  0].a[ 17] =        12.854000000000;     BAS[ATNO][  0].d[ 17] =        -0.116821924749;

  // Basis function   2 L = s
  InitBFNGauss(BAS[ATNO][  1]);
  BAS[ATNO][  1].l  = 0;
  BAS[ATNO][  1].ng = 18;
  BAS[ATNO][  1].a[  0] =     17880.000000000000;     BAS[ATNO][  1].d[  0] =         0.000067333598;
  BAS[ATNO][  1].a[  1] =      2683.000000000000;     BAS[ATNO][  1].d[  1] =         0.000517957770;
  BAS[ATNO][  1].a[  2] =       611.500000000000;     BAS[ATNO][  1].d[  2] =         0.002635225342;
  BAS[ATNO][  1].a[  3] =       173.500000000000;     BAS[ATNO][  1].d[  3] =         0.009902965709;
  BAS[ATNO][  1].a[  4] =        56.640000000000;     BAS[ATNO][  1].d[  4] =         0.026541754611;
  BAS[ATNO][  1].a[  5] =        20.420000000000;     BAS[ATNO][  1].d[  5] =         0.040904156978;
  BAS[ATNO][  1].a[  6] =         7.810000000000;     BAS[ATNO][  1].d[  6] =         0.023541759996;
  BAS[ATNO][  1].a[  7] =         1.653000000000;     BAS[ATNO][  1].d[  7] =         0.001374317049;
  BAS[ATNO][  1].a[  8] =     17880.000000000000;     BAS[ATNO][  1].d[  8] =        -0.000328869611;
  BAS[ATNO][  1].a[  9] =      2683.000000000000;     BAS[ATNO][  1].d[  9] =        -0.002594628266;
  BAS[ATNO][  1].a[ 10] =       611.500000000000;     BAS[ATNO][  1].d[ 10] =        -0.012881363762;
  BAS[ATNO][  1].a[ 11] =       173.500000000000;     BAS[ATNO][  1].d[ 11] =        -0.052892558371;
  BAS[ATNO][  1].a[ 12] =        56.640000000000;     BAS[ATNO][  1].d[ 12] =        -0.145712181915;
  BAS[ATNO][  1].a[ 13] =        20.420000000000;     BAS[ATNO][  1].d[ 13] =        -0.335039739929;
  BAS[ATNO][  1].a[ 14] =         7.810000000000;     BAS[ATNO][  1].d[ 14] =        -0.204660147594;
  BAS[ATNO][  1].a[ 15] =         1.653000000000;     BAS[ATNO][  1].d[ 15] =         1.084218097248;
  BAS[ATNO][  1].a[ 16] =         0.486900000000;     BAS[ATNO][  1].d[ 16] =         0.017973951939;
  BAS[ATNO][  1].a[ 17] =        12.854000000000;     BAS[ATNO][  1].d[ 17] =         0.152773876990;

  // Basis function   3 L = s
  InitBFNGauss(BAS[ATNO][  2]);
  BAS[ATNO][  2].l  = 0;
  BAS[ATNO][  2].ng = 18;
  BAS[ATNO][  2].a[  0] =     17880.000000000000;     BAS[ATNO][  2].d[  0] =        -0.000296195237;
  BAS[ATNO][  2].a[  1] =      2683.000000000000;     BAS[ATNO][  2].d[  1] =        -0.002278455771;
  BAS[ATNO][  2].a[  2] =       611.500000000000;     BAS[ATNO][  2].d[  2] =        -0.011592150435;
  BAS[ATNO][  2].a[  3] =       173.500000000000;     BAS[ATNO][  2].d[  3] =        -0.043562372615;
  BAS[ATNO][  2].a[  4] =        56.640000000000;     BAS[ATNO][  2].d[  4] =        -0.116755105310;
  BAS[ATNO][  2].a[  5] =        20.420000000000;     BAS[ATNO][  2].d[  5] =        -0.179934191453;
  BAS[ATNO][  2].a[  6] =         7.810000000000;     BAS[ATNO][  2].d[  6] =        -0.103558363335;
  BAS[ATNO][  2].a[  7] =         1.653000000000;     BAS[ATNO][  2].d[  7] =        -0.006045513347;
  BAS[ATNO][  2].a[  8] =     17880.000000000000;     BAS[ATNO][  2].d[  8] =         0.000407439973;
  BAS[ATNO][  2].a[  9] =      2683.000000000000;     BAS[ATNO][  2].d[  9] =         0.003214511883;
  BAS[ATNO][  2].a[ 10] =       611.500000000000;     BAS[ATNO][  2].d[ 10] =         0.015958855237;
  BAS[ATNO][  2].a[ 11] =       173.500000000000;     BAS[ATNO][  2].d[ 11] =         0.065529139440;
  BAS[ATNO][  2].a[ 12] =        56.640000000000;     BAS[ATNO][  2].d[ 12] =         0.180524334254;
  BAS[ATNO][  2].a[ 13] =        20.420000000000;     BAS[ATNO][  2].d[ 13] =         0.415084210560;
  BAS[ATNO][  2].a[ 14] =         7.810000000000;     BAS[ATNO][  2].d[ 14] =         0.253555580646;
  BAS[ATNO][  2].a[ 15] =         1.653000000000;     BAS[ATNO][  2].d[ 15] =        -1.343249051790;
  BAS[ATNO][  2].a[ 16] =         0.486900000000;     BAS[ATNO][  2].d[ 16] =         1.601300626735;
  BAS[ATNO][  2].a[ 17] =        12.854000000000;     BAS[ATNO][  2].d[ 17] =        -0.192705276751;

  // Basis function   4 L = s
  InitBFNGauss(BAS[ATNO][  3]);
  BAS[ATNO][  3].l  = 0;
  BAS[ATNO][  3].ng = 18;
  BAS[ATNO][  3].a[  0] =     17880.000000000000;     BAS[ATNO][  3].d[  0] =        -0.002046764138;
  BAS[ATNO][  3].a[  1] =      2683.000000000000;     BAS[ATNO][  3].d[  1] =        -0.015744552862;
  BAS[ATNO][  3].a[  2] =       611.500000000000;     BAS[ATNO][  3].d[  2] =        -0.080103914094;
  BAS[ATNO][  3].a[  3] =       173.500000000000;     BAS[ATNO][  3].d[  3] =        -0.301024091535;
  BAS[ATNO][  3].a[  4] =        56.640000000000;     BAS[ATNO][  3].d[  4] =        -0.806799478498;
  BAS[ATNO][  3].a[  5] =        20.420000000000;     BAS[ATNO][  3].d[  5] =        -1.243378706590;
  BAS[ATNO][  3].a[  6] =         7.810000000000;     BAS[ATNO][  3].d[  6] =        -0.715607538625;
  BAS[ATNO][  3].a[  7] =         1.653000000000;     BAS[ATNO][  3].d[  7] =        -0.041775620884;
  BAS[ATNO][  3].a[  8] =     17880.000000000000;     BAS[ATNO][  3].d[  8] =         0.000215203769;
  BAS[ATNO][  3].a[  9] =      2683.000000000000;     BAS[ATNO][  3].d[  9] =         0.001697857639;
  BAS[ATNO][  3].a[ 10] =       611.500000000000;     BAS[ATNO][  3].d[ 10] =         0.008429231328;
  BAS[ATNO][  3].a[ 11] =       173.500000000000;     BAS[ATNO][  3].d[ 11] =         0.034611522373;
  BAS[ATNO][  3].a[ 12] =        56.640000000000;     BAS[ATNO][  3].d[ 12] =         0.095350283663;
  BAS[ATNO][  3].a[ 13] =        20.420000000000;     BAS[ATNO][  3].d[ 13] =         0.219241341531;
  BAS[ATNO][  3].a[ 14] =         7.810000000000;     BAS[ATNO][  3].d[ 14] =         0.133924307982;
  BAS[ATNO][  3].a[ 15] =         1.653000000000;     BAS[ATNO][  3].d[ 15] =        -0.709484284472;
  BAS[ATNO][  3].a[ 16] =         0.486900000000;     BAS[ATNO][  3].d[ 16] =         0.362397120026;
  BAS[ATNO][  3].a[ 17] =        12.854000000000;     BAS[ATNO][  3].d[ 17] =         2.810831656561;

  // Basis function   5 L = p
  InitBFNGauss(BAS[ATNO][  4]);
  BAS[ATNO][  4].l  = 1;
  BAS[ATNO][  4].ng = 5;
  BAS[ATNO][  4].a[  0] =        28.390000000000;     BAS[ATNO][  4].d[  0] =         0.067453836970;
  BAS[ATNO][  4].a[  1] =         6.270000000000;     BAS[ATNO][  4].d[  1] =         0.351533621570;
  BAS[ATNO][  4].a[  2] =         1.695000000000;     BAS[ATNO][  4].d[  2] =         0.744607694913;
  BAS[ATNO][  4].a[  3] =         0.431700000000;     BAS[ATNO][  4].d[  3] =        -0.053434332276;
  BAS[ATNO][  4].a[  4] =        40.184000000000;     BAS[ATNO][  4].d[  4] =         0.019106416381;

  // Basis function   6 L = p
  InitBFNGauss(BAS[ATNO][  5]);
  BAS[ATNO][  5].l  = 1;
  BAS[ATNO][  5].ng = 5;
  BAS[ATNO][  5].a[  0] =        28.390000000000;     BAS[ATNO][  5].d[  0] =        -0.033124739814;
  BAS[ATNO][  5].a[  1] =         6.270000000000;     BAS[ATNO][  5].d[  1] =        -0.172628574938;
  BAS[ATNO][  5].a[  2] =         1.695000000000;     BAS[ATNO][  5].d[  2] =        -0.365656532900;
  BAS[ATNO][  5].a[  3] =         0.431700000000;     BAS[ATNO][  5].d[  3] =         1.140284999904;
  BAS[ATNO][  5].a[  4] =        40.184000000000;     BAS[ATNO][  5].d[  4] =        -0.008091172792;

  // Basis function   7 L = p
  InitBFNGauss(BAS[ATNO][  6]);
  BAS[ATNO][  6].l  = 1;
  BAS[ATNO][  6].ng = 5;
  BAS[ATNO][  6].a[  0] =        28.390000000000;     BAS[ATNO][  6].d[  0] =        -0.024921383514;
  BAS[ATNO][  6].a[  1] =         6.270000000000;     BAS[ATNO][  6].d[  1] =        -0.129877032869;
  BAS[ATNO][  6].a[  2] =         1.695000000000;     BAS[ATNO][  6].d[  2] =        -0.275101532635;
  BAS[ATNO][  6].a[  3] =         0.431700000000;     BAS[ATNO][  6].d[  3] =         0.161297729071;
  BAS[ATNO][  6].a[  4] =        40.184000000000;     BAS[ATNO][  6].d[  4] =         1.046875203932;

  // Basis function   8 L = d
  InitBFNGauss(BAS[ATNO][  7]);
  BAS[ATNO][  7].l  = 2;
  BAS[ATNO][  7].ng = 1;
  BAS[ATNO][  7].a[  0] =         2.202000000000;     BAS[ATNO][  7].d[  0] =         1.000000000000;

-------
TIMINGS
-------

Total SCF time: 0 days 0 hours 0 min 1 sec 

Total time                  ....       1.611 sec
Sum of individual times     ....       1.433 sec  ( 89.0%)

Fock matrix formation       ....       1.024 sec  ( 63.6%)
  XC integration            ....       0.017 sec  (  1.7% of F)
    Basis function eval.    ....       0.002 sec  ( 13.4% of XC)
    Density eval.           ....       0.001 sec  (  4.4% of XC)
    XC-Functional eval.     ....       0.002 sec  (  9.9% of XC)
    XC-Potential eval.      ....       0.000 sec  (  1.9% of XC)
Diagonalization             ....       0.001 sec  (  0.1%)
Density matrix formation    ....       0.000 sec  (  0.0%)
Population analysis         ....       0.000 sec  (  0.0%)
Initial guess               ....       0.097 sec  (  6.0%)
Orbital Transformation      ....       0.000 sec  (  0.0%)
Orbital Orthonormalization  ....       0.000 sec  (  0.0%)
DIIS solution               ....       0.001 sec  (  0.0%)
SOSCF solution              ....       0.000 sec  (  0.0%)
Grid generation             ....       0.310 sec  ( 19.2%)

-------------------------   --------------------
FINAL SINGLE POINT ENERGY       -97.125039762894
-------------------------   --------------------


                            ***************************************
                            *     ORCA property calculations      *
                            ***************************************

                                    ---------------------
                                    Active property flags
                                    ---------------------
   (+) Dipole Moment


------------------------------------------------------------------------------
                       ORCA ELECTRIC PROPERTIES CALCULATION
------------------------------------------------------------------------------

Dipole Moment Calculation                       ... on
Quadrupole Moment Calculation                   ... off
Polarizability Calculation                      ... off
GBWName                                         ... Ne_cc-pcvdz_34.25899725_.gbw
Electron density file                           ... Ne_cc-pcvdz_34.25899725_.scfp
The origin for moment calculation is the CENTER OF MASS  = ( 0.000000,  0.000000  0.000000)

-------------
DIPOLE MOMENT
-------------
                                X             Y             Z
Electronic contribution:      0.00000       0.00000       0.00000
Nuclear contribution   :      0.00000       0.00000       0.00000
                        -----------------------------------------
Total Dipole Moment    :      0.00000       0.00000       0.00000
                        -----------------------------------------
Magnitude (a.u.)       :      0.00000
Magnitude (Debye)      :      0.00000



--------------------
Rotational spectrum 
--------------------
 
Rotational constants in cm-1:     0.000000     0.000000     0.000000 
Rotational constants in MHz :     0.000000     0.000000     0.000000 

 Dipole components along the rotational axes: 
x,y,z [a.u.] :     0.000000     0.000000     0.000000 
x,y,z [Debye]:     0.000000     0.000000     0.000000 

 

Timings for individual modules:

Sum of individual times         ...        2.706 sec (=   0.045 min)
GTO integral calculation        ...        0.488 sec (=   0.008 min)  18.0 %
Relativistic integrals          ...        0.356 sec (=   0.006 min)  13.1 %
SCF iterations                  ...        1.863 sec (=   0.031 min)  68.8 %
                             ****ORCA TERMINATED NORMALLY****
TOTAL RUN TIME: 0 days 0 hours 0 minutes 3 seconds 20 msec
