
                                 *****************
                                 * O   R   C   A *
                                 *****************

           --- An Ab Initio, DFT and Semiempirical electronic structure package ---

                  #######################################################
                  #                        -***-                        #
                  #          Department of theory and spectroscopy      #
                  #               Directorship: Frank Neese             #
                  #        Max Planck Institute fuer Kohlenforschung    #
                  #                Kaiser Wilhelm Platz 1               #
                  #                 D-45470 Muelheim/Ruhr               #
                  #                      Germany                        #
                  #                                                     #
                  #                  All rights reserved                #
                  #                        -***-                        #
                  #######################################################


                         Program Version 4.2.1 -  RELEASE  -


 With contributions from (in alphabetic order):
   Daniel Aravena         : Magnetic Suceptibility
   Michael Atanasov       : Ab Initio Ligand Field Theory (pilot matlab implementation)
   Alexander A. Auer      : GIAO ZORA, VPT2
   Ute Becker             : Parallelization
   Giovanni Bistoni       : ED, misc. LED, open-shell LED, HFLD
   Martin Brehm           : Molecular dynamics
   Dmytro Bykov           : SCF Hessian
   Vijay G. Chilkuri      : MRCI spin determinant printing, contributions to CSF-ICE
   Dipayan Datta          : RHF DLPNO-CCSD density
   Achintya Kumar Dutta   : EOM-CC, STEOM-CC
   Dmitry Ganyushin       : Spin-Orbit,Spin-Spin,Magnetic field MRCI
   Miquel Garcia          : C-PCM Hessian, Gaussian charge scheme
   Yang Guo               : DLPNO-NEVPT2, CIM, IAO-localization
   Andreas Hansen         : Spin unrestricted coupled pair/coupled cluster methods
   Benjamin Helmich-Paris : CASSCF linear response (MC-RPA)
   Lee Huntington         : MR-EOM, pCC
   Robert Izsak           : Overlap fitted RIJCOSX, COSX-SCS-MP3, EOM
   Christian Kollmar      : KDIIS, OOCD, Brueckner-CCSD(T), CCSD density
   Simone Kossmann        : Meta GGA functionals, TD-DFT gradient, OOMP2, MP2 Hessian
   Martin Krupicka        : AUTO-CI
   Lucas Lang             : DCDCAS
   Dagmar Lenk            : GEPOL surface, SMD
   Dimitrios Liakos       : Extrapolation schemes; Compound Job, initial MDCI parallelization
   Dimitrios Manganas     : Further ROCIS development; embedding schemes
   Dimitrios Pantazis     : SARC Basis sets
   Taras Petrenko         : DFT Hessian,TD-DFT gradient, ASA, ECA, R-Raman, ABS, FL, XAS/XES, NRVS
   Peter Pinski           : DLPNO-MP2, DLPNO-MP2 Gradient
   Christoph Reimann      : Effective Core Potentials
   Marius Retegan         : Local ZFS, SOC
   Christoph Riplinger    : Optimizer, TS searches, QM/MM, DLPNO-CCSD(T), (RO)-DLPNO pert. Triples
   Tobias Risthaus        : Range-separated hybrids, TD-DFT gradient, RPA, STAB
   Michael Roemelt        : Original ROCIS implementation
   Masaaki Saitow         : Open-shell DLPNO-CCSD energy and density
   Barbara Sandhoefer     : DKH picture change effects
   Avijit Sen             : IP-ROCIS
   Kantharuban Sivalingam : CASSCF convergence, NEVPT2, FIC-MRCI
   Bernardo de Souza      : ESD, SOC TD-DFT
   Georgi Stoychev        : AutoAux, RI-MP2 NMR
   Willem Van den Heuvel  : Paramagnetic NMR
   Boris Wezisla          : Elementary symmetry handling
   Frank Wennmohs         : Technical directorship


 We gratefully acknowledge several colleagues who have allowed us to
 interface, adapt or use parts of their codes:
   Stefan Grimme, W. Hujo, H. Kruse,             : VdW corrections, initial TS optimization,
                  C. Bannwarth                     DFT functionals, gCP, sTDA/sTD-DF
   Ed Valeev, F. Pavosevic, A. Kumar             : LibInt (2-el integral package), F12 methods
   Garnet Chan, S. Sharma, J. Yang, R. Olivares  : DMRG
   Ulf Ekstrom                                   : XCFun DFT Library
   Mihaly Kallay                                 : mrcc  (arbitrary order and MRCC methods)
   Andreas Klamt, Michael Diedenhofen            : otool_cosmo (COSMO solvation model)
   Jiri Pittner, Ondrej Demel                    : Mk-CCSD
   Frank Weinhold                                : gennbo (NPA and NBO analysis)
   Christopher J. Cramer and Donald G. Truhlar   : smd solvation model
   Lars Goerigk                                  : TD-DFT with DH, B97 family of functionals
   V. Asgeirsson, H. Jonsson                     : NEB implementation
   FAccTs GmbH                                   : IRC, NEB, NEB-TS, Multilevel, MM, QM/MM, CI optimization
   S Lehtola, MJT Oliveira, MAL Marques          : LibXC Library


 Your calculation uses the libint2 library for the computation of 2-el integrals
 For citations please refer to: http://libint.valeyev.net

 Your ORCA version has been built with support for libXC version: 4.2.3
 For citations please refer to: https://tddft.org/programs/libxc/

 This ORCA versions uses:
   CBLAS   interface :  Fast vector & matrix operations
   LAPACKE interface :  Fast linear algebra routines
   SCALAPACK package :  Parallel linear algebra routines


----- Orbital basis set information -----
Your calculation utilizes the basis: cc-pCVTZ 
             H : cc-pVTZ. Obtained from the ccRepo (grant-hill.group.shef.ac.uk/ccrepo) Feb. 2017
                 T. H. Dunning, Jr., J. Chem. Phys. 90, 1007 (1989)
            He : cc-pVTZ. Obtained from the ccRepo (grant-hill.group.shef.ac.uk/ccrepo) Feb. 2017
                 D. E. Woon, T. H. Dunning, Jr., J. Chem. Phys. 100, 2975 (1994)
  Li-Be, Na-Mg : Obtained from the ccRepo (grant-hill.group.shef.ac.uk/ccrepo) Feb. 2017
                 B. P. Prascher, D. E. Woon, K. A. Peterson, T. H. Dunning, Jr., A. K. Wilson, Theor. Chem. Acc. 128, 69 (2011)
          B-Ne : Obtained from the ccRepo (grant-hill.group.shef.ac.uk/ccrepo) Feb. 2017
                 D. E. Woon, T. H. Dunning, Jr., J. Chem. Phys. 103, 4572 (1995)
                  K. A. Peterson, T. H. Dunning, Jr., J. Chem. Phys. 117, 10548 (2002)
         Al-Ar : Obtained from the EMSL Basis Set Exchange (bse.pnl.gov) Feb. 2017
                 K. A. Peterson, T. H. Dunning, Jr., J. Chem. Phys. 117, 10548 (2002)
            Ca : Obtained from the Peterson Research Group Website (tyr0.chem.wsu.edu/~kipeters) Feb. 2017
                 J. Koput, K. A. Peterson, J. Phys. Chem. 106, 9595 (2002)
         Ga-Kr : Obtained from the Peterson Research Group Website (tyr0.chem.wsu.edu/~kipeters) Feb. 2017
                 N. J. DeYonker, K. A. Peterson, A. K. Wilson, J. Phys. Chem. A 111, 11383 (2007)

================================================================================
                                        WARNINGS
                       Please study these warnings very carefully!
================================================================================


INFO   : the flag for use of LIBINT has been found!

================================================================================
                                       INPUT FILE
================================================================================
NAME = Ne_cc-pcvtz_2192.575824_.inp
|  1> ! LDA cc-pcvtz nori grid5 finalgrid6 verytightscf
|  2> %Pal NProcs 18 End
|  3> 
|  4> % REL
|  5>   Method ZORA
|  6>   ModelPot 1, 0, 0, 0
|  7>   velit 2192.575824
|  8> END
|  9> 
| 10> *xyz 8 1
| 11> Ne 0.0 0.0 0.0
| 12> **                         ****END OF INPUT****
================================================================================

                       ****************************
                       * Single Point Calculation *
                       ****************************

---------------------------------
CARTESIAN COORDINATES (ANGSTROEM)
---------------------------------
  Ne     0.000000    0.000000    0.000000

----------------------------
CARTESIAN COORDINATES (A.U.)
----------------------------
  NO LB      ZA    FRAG     MASS         X           Y           Z
   0 Ne   10.0000    0    20.179    0.000000    0.000000    0.000000

--------------------------------
INTERNAL COORDINATES (ANGSTROEM)
--------------------------------
 Ne     0   0   0     0.000000000000     0.00000000     0.00000000

---------------------------
INTERNAL COORDINATES (A.U.)
---------------------------
 Ne     0   0   0     0.000000000000     0.00000000     0.00000000

---------------------
BASIS SET INFORMATION
---------------------
There are 1 groups of distinct atoms

 Group   1 Type Ne  : 20s7p3d1f contracted to 6s5p3d1f pattern {881111/31111/111/1}

Atom   0Ne   basis set group =>   1


           ************************************************************
           *        Program running with 18 parallel MPI-processes    *
           *              working on a common directory               *
           ************************************************************
------------------------------------------------------------------------------
                           ORCA GTO INTEGRAL CALCULATION
------------------------------------------------------------------------------

                         BASIS SET STATISTICS AND STARTUP INFO

 # of primitive gaussian shells          ...   31
 # of primitive gaussian functions       ...   63
 # of contracted shells                  ...   15
 # of contracted basis functions         ...   43
 Highest angular momentum                ...    3
 Maximum contraction depth               ...    8
 Integral package used                   ... LIBINT
 Integral threshhold            Thresh   ...  1.000e-12
 Primitive cut-off              TCut     ...  1.000e-14


------------------------------ INTEGRAL EVALUATION ----------------------------


 * One electron integrals 
 Pre-screening matrix                    ... done
 Shell pair data                         ... done (   0.000 sec)



           ************************************************************
           *        Program running with 18 parallel MPI-processes    *
           *              working on a common directory               *
           ************************************************************
------------------------------------------------------------------------------
                          ORCA RELATIVISTIC HAMILTONIAN
------------------------------------------------------------------------------

Relativistic Method            ... ZORA(MP)
Treatment of potential         ... Van Wuellen
Nucleus model                  ... Point Nucleus
Speed of light used            ... 2192.57582400000001


            *************************************************
            *         ZERO ORDER REGULAR APPROXIMATION      *
            *                     ZORA(MP)                  *
            *            Programmed by FN according to      *
            *                   C. van Wuellen              *
            *       J. Chem. Phys. (1998) vol 109, 392-399  *
            *************************************************

Terms included in model potential: +V(e,N)
Basis function cutoff value   ... 1.000000e-12
Loading the fitted atomic densities  (DKH4)  ... done
Calculating the cutoffs                      ... done
Number of fit functions                      ... 11
Setting up the integration grid ... done


           ************************************************************
           *        Program running with 18 parallel MPI-processes    *
           *              working on a common directory               *
           ************************************************************
-------------------------------------------------------------------------------
                                 ORCA SCF
-------------------------------------------------------------------------------

------------
SCF SETTINGS
------------
Hamiltonian:
 Density Functional     Method          .... DFT(GTOs)
 Exchange Functional    Exchange        .... Slater
   X-Alpha parameter    XAlpha          ....  0.666667
 Correlation Functional Correlation     .... VWN-5
 Gradients option       PostSCFGGA      .... off
   Density functional embedding theory  .... OFF

Relativistic Settings:
 Scalar relativistic method             .... ZORA
 Speed of light used       Velit        ....       2192.57582
Orbital energies will be scaled


General Settings:
 Integral files         IntName         .... Ne_cc-pcvtz_2192.575824_
 Hartree-Fock type      HFTyp           .... RHF
 Total Charge           Charge          ....    8
 Multiplicity           Mult            ....    1
 Number of Electrons    NEL             ....    2
 Basis Dimension        Dim             ....   43
 Nuclear Repulsion      ENuc            ....      0.0000000000 Eh

Convergence Acceleration:
 DIIS                   CNVDIIS         .... on
   Start iteration      DIISMaxIt       ....    12
   Startup error        DIISStart       ....  0.200000
   # of expansion vecs  DIISMaxEq       ....     5
   Bias factor          DIISBfac        ....   1.050
   Max. coefficient     DIISMaxC        ....  10.000
 Newton-Raphson         CNVNR           .... off
 SOSCF                  CNVSOSCF        .... on
   Start iteration      SOSCFMaxIt      ....   150
   Startup grad/error   SOSCFStart      ....  0.003300
 Level Shifting         CNVShift        .... on
   Level shift para.    LevelShift      ....    0.2500
   Turn off err/grad.   ShiftErr        ....    0.0010
 Zerner damping         CNVZerner       .... off
 Static damping         CNVDamp         .... on
   Fraction old density DampFac         ....    0.7000
   Max. Damping (<1)    DampMax         ....    0.9800
   Min. Damping (>=0)   DampMin         ....    0.0000
   Turn off err/grad.   DampErr         ....    0.1000
 Fernandez-Rico         CNVRico         .... off

SCF Procedure:
 Maximum # iterations   MaxIter         ....   125
 SCF integral mode      SCFMode         .... Direct
   Integral package                     .... LIBINT
 Reset frequency        DirectResetFreq ....    20
 Integral Threshold     Thresh          ....  1.000e-12 Eh
 Primitive CutOff       TCut            ....  1.000e-14 Eh

Convergence Tolerance:
 Convergence Check Mode ConvCheckMode   .... Total+1el-Energy
 Convergence forced     ConvForced      .... 0
 Energy Change          TolE            ....  1.000e-09 Eh
 1-El. energy change                    ....  1.000e-06 Eh
 Orbital Gradient       TolG            ....  2.000e-06
 Orbital Rotation angle TolX            ....  2.000e-06
 DIIS Error             TolErr          ....  1.000e-08


Diagonalization of the overlap matrix:
Smallest eigenvalue                        ... 1.088e-02
Time for diagonalization                   ...    0.001 sec
Threshold for overlap eigenvalues          ... 1.000e-08
Number of eigenvalues below threshold      ... 0
Time for construction of square roots      ...    0.001 sec
Total time needed                          ...    0.002 sec

-------------------
DFT GRID GENERATION
-------------------

General Integration Accuracy     IntAcc      ...  5.010
Radial Grid Type                 RadialGrid  ... Gauss-Chebyshev
Angular Grid (max. acc.)         AngularGrid ... Lebedev-434
Angular grid pruning method      GridPruning ... 3 (G Style)
Weight generation scheme         WeightScheme... Becke
Basis function cutoff            BFCut       ...    1.0000e-12
Integration weight cutoff        WCut        ...    1.0000e-14
Grids for H and He will be reduced by one unit

# of grid points (after initial pruning)     ...  10818 (   0.0 sec)
# of grid points (after weights+screening)   ...  10818 (   0.0 sec)
Grid point division into batches done        ...    0.1 sec
Reduced shell lists constructed in    0.1 sec

Total number of grid points                  ...    10818
Total number of batches                      ...      170
Average number of points per batch           ...       63
Average number of grid points per atom       ...    10818
Average number of shells per batch           ...     0.00 ( 0.00%)
Average number of basis functions per batch  ...     0.00 ( 0.00%)
Average number of large shells per batch     ...     0.00 ( -nan%)
Average number of large basis fcns per batch ...     0.00 ( -nan%)
Maximum spatial batch extension              ...  16.29, 16.29, 16.29 au
Average spatial batch extension              ...   0.85,  0.86,  0.85 au

Time for grid setup =    0.129 sec

------------------------------
INITIAL GUESS: MODEL POTENTIAL
------------------------------
Loading ZORA relativistic densities                ... done
Calculating cut-offs                               ... done
Setting up the integral package                    ... done
Initializing the effective Hamiltonian             ... done
Starting the Coulomb interaction                   ... done (   0.0 sec)
Reading the grid                                   ... done
Mapping shells                                     ... done
Starting the XC term evaluation                    ... done (   0.0 sec)
  promolecular density results
     # of electrons  =     10.000000332
     EX              =    -11.053709298
     EC              =     -0.746638772
     EX+EC           =    -11.800348070
Transforming the Hamiltonian                       ... done (   0.0 sec)
Diagonalizing the Hamiltonian                      ... done (   0.0 sec)
Back transforming the eigenvectors                 ... done (   0.0 sec)
Now organizing SCF variables                       ... done
                      ------------------
                      INITIAL GUESS DONE (   0.2 sec)
                      ------------------
--------------
SCF ITERATIONS
--------------
ITER       Energy         Delta-E        Max-DP      RMS-DP      [F,P]     Damp
               ***  Starting incremental Fock matrix formation  ***
  0    -93.1990028052   0.000000000000 0.01371509  0.00040372  0.8048638 0.7000
  1    -93.2028762469  -0.003873441740 0.00933900  0.00027756  0.5568047 0.7000
  2    -93.2055297484  -0.002653501488 0.00630275  0.00018914  0.3840641 0.7000
                      *** Initiating the SOSCF procedure ***
                      *** Re-Reading the Fockian *** 
                      *** Removing any level shift *** 
ITER      Energy       Delta-E        Grad      Rot      Max-DP    RMS-DP
  3    -93.20736012  -0.0018303687  0.003121  0.003121  0.014171  0.000430
               *** Restarting incremental Fock matrix formation ***
  4    -93.21154907  -0.0041889532  0.007096  0.000112  0.001219  0.000031
  5    -93.21155207  -0.0000030007  0.000381  0.000006  0.000065  0.000002
                  ***Gradient check signals convergence***
              ***Rediagonalizing the Fockian in SOSCF/NRSCF***

               *****************************************************
               *                     SUCCESS                       *
               *           SCF CONVERGED AFTER   6 CYCLES          *
               *****************************************************

Setting up the final grid:

General Integration Accuracy     IntAcc      ...  5.340
Radial Grid Type                 RadialGrid  ... Gauss-Chebyshev
Angular Grid (max. acc.)         AngularGrid ... Lebedev-590
Angular grid pruning method      GridPruning ... 3 (G Style)
Weight generation scheme         WeightScheme... Becke
Basis function cutoff            BFCut       ...    1.0000e-12
Integration weight cutoff        WCut        ...    1.0000e-14
Grids for H and He will be reduced by one unit

# of grid points (after initial pruning)     ...  16840 (   0.0 sec)
# of grid points (after weights+screening)   ...  16840 (   0.0 sec)
Grid point division into batches done        ...    0.2 sec
Reduced shell lists constructed in    0.2 sec

Total number of grid points                  ...    16840
Total number of batches                      ...      264
Average number of points per batch           ...       63
Average number of grid points per atom       ...    16840
Average number of shells per batch           ...     0.00 ( 0.00%)
Average number of basis functions per batch  ...     0.00 ( 0.00%)
Average number of large shells per batch     ...     0.00 ( -nan%)
Average number of large basis fcns per batch ...     0.00 ( -nan%)
Maximum spatial batch extension              ...  16.63, 16.63, 16.63 au
Average spatial batch extension              ...   0.74,  0.74,  0.69 au

Final grid set up in    0.3 sec
Final integration                            ... done (   0.0 sec)
Change in XC energy                          ...     0.000005235
Integrated number of electrons               ...     2.000000018
Previous integrated no of electrons          ...     2.000000894

----------------
TOTAL SCF ENERGY
----------------

Total Energy       :          -93.21154685 Eh           -2536.41514 eV

Components:
Nuclear Repulsion  :            0.00000000 Eh               0.00000 eV
Electronic Energy  :          -93.21154685 Eh           -2536.41514 eV
One Electron Energy:          -99.85149100 Eh           -2717.09720 eV
Two Electron Energy:            6.63994416 Eh             180.68207 eV

Virial components:
Potential Energy   :         -186.26652631 Eh           -5068.56986 eV
Kinetic Energy     :           93.05497946 Eh            2532.15472 eV
Virial Ratio       :            2.00168253


DFT components:
N(Alpha)           :        1.000000009250 electrons
N(Beta)            :        1.000000009250 electrons
N(Total)           :        2.000000018500 electrons
E(X)               :       -5.146005284153 Eh       
E(C)               :       -0.202678828171 Eh       
E(XC)              :       -5.348684112324 Eh       
DFET-embed. en.    :        0.000000000000 Eh       

---------------
SCF CONVERGENCE
---------------

  Last Energy change         ...   -9.0831e-09  Tolerance :   1.0000e-09
  Last MAX-Density change    ...    3.3684e-09  Tolerance :   1.0000e-08
  Last RMS-Density change    ...    1.2948e-10  Tolerance :   1.0000e-09
  Last Orbital Gradient      ...    2.7924e-08  Tolerance :   2.0000e-06
  Last Orbital Rotation      ...    3.8569e-10  Tolerance :   2.0000e-06

             **** THE GBW FILE WAS UPDATED (Ne_cc-pcvtz_2192.575824_.gbw) ****
             **** DENSITY FILE WAS UPDATED (Ne_cc-pcvtz_2192.575824_.scfp) ****
             **** ENERGY FILE WAS UPDATED (Ne_cc-pcvtz_2192.575824_.en.tmp) ****
             **** THE GBW FILE WAS UPDATED (Ne_cc-pcvtz_2192.575824_.gbw) ****
             **** DENSITY FILE WAS UPDATED (Ne_cc-pcvtz_2192.575824_.scfp) ****
----------------
ORBITAL ENERGIES
----------------

  NO   OCC          E(Eh)            E(eV) 
   0   2.0000     -41.478337     -1128.6829 
   1   0.0000      -9.048451      -246.2209 
   2   0.0000      -8.605545      -234.1688 
   3   0.0000      -8.605545      -234.1688 
   4   0.0000      -8.605545      -234.1688 
   5   0.0000      -3.832240      -104.2806 
   6   0.0000      -3.655118       -99.4608 
   7   0.0000      -3.655118       -99.4608 
   8   0.0000      -3.655118       -99.4608 
   9   0.0000      -3.489697       -94.9595 
  10   0.0000      -3.489697       -94.9595 
  11   0.0000      -3.489697       -94.9595 
  12   0.0000      -3.489697       -94.9595 
  13   0.0000      -3.489697       -94.9595 
  14   0.0000      -1.353602       -36.8334 
  15   0.0000      -1.353602       -36.8334 
  16   0.0000      -1.353602       -36.8334 
  17   0.0000      -0.047161        -1.2833 
  18   0.0000       2.061906        56.1073 
  19   0.0000       2.061906        56.1073 
  20   0.0000       2.061906        56.1073 
  21   0.0000       2.061906        56.1073 
  22   0.0000       2.061906        56.1073 
  23   0.0000       2.061906        56.1073 
  24   0.0000       2.061906        56.1073 
  25   0.0000       2.533076        68.9285 
  26   0.0000       2.533076        68.9285 
  27   0.0000       2.533076        68.9285 
  28   0.0000       2.533076        68.9285 
  29   0.0000       2.533076        68.9285 
  30   0.0000      26.855111       730.7647 
  31   0.0000      26.855111       730.7647 
  32   0.0000      26.855111       730.7647 
  33   0.0000      30.592774       832.4717 
  34   0.0000      52.166006      1419.5092 
  35   0.0000      52.166006      1419.5092 
  36   0.0000      52.166006      1419.5092 
  37   0.0000      52.166006      1419.5092 
  38   0.0000      52.166006      1419.5092 
  39   0.0000     192.437601      5236.4934 
  40   0.0000     192.437601      5236.4934 
  41   0.0000     192.437601      5236.4934 
  42   0.0000     208.813337      5682.0998 

                    ********************************
                    * MULLIKEN POPULATION ANALYSIS *
                    ********************************

-----------------------
MULLIKEN ATOMIC CHARGES
-----------------------
   0 Ne:    8.000000
Sum of atomic charges:    8.0000000

--------------------------------
MULLIKEN REDUCED ORBITAL CHARGES
--------------------------------
  0 Nes       :     2.000000  s :     2.000000
      pz      :     0.000000  p :     0.000000
      px      :     0.000000
      py      :     0.000000
      dz2     :     0.000000  d :     0.000000
      dxz     :     0.000000
      dyz     :     0.000000
      dx2y2   :     0.000000
      dxy     :     0.000000
      f0      :     0.000000  f :     0.000000
      f+1     :     0.000000
      f-1     :     0.000000
      f+2     :     0.000000
      f-2     :     0.000000
      f+3     :     0.000000
      f-3     :     0.000000


                     *******************************
                     * LOEWDIN POPULATION ANALYSIS *
                     *******************************

----------------------
LOEWDIN ATOMIC CHARGES
----------------------
   0 Ne:    8.000000

-------------------------------
LOEWDIN REDUCED ORBITAL CHARGES
-------------------------------
  0 Nes       :     2.000000  s :     2.000000
      pz      :     0.000000  p :     0.000000
      px      :     0.000000
      py      :     0.000000
      dz2     :     0.000000  d :     0.000000
      dxz     :     0.000000
      dyz     :     0.000000
      dx2y2   :     0.000000
      dxy     :     0.000000
      f0      :     0.000000  f :     0.000000
      f+1     :     0.000000
      f-1     :     0.000000
      f+2     :     0.000000
      f-2     :     0.000000
      f+3     :     0.000000
      f-3     :     0.000000


                      *****************************
                      * MAYER POPULATION ANALYSIS *
                      *****************************

  NA   - Mulliken gross atomic population
  ZA   - Total nuclear charge
  QA   - Mulliken gross atomic charge
  VA   - Mayer's total valence
  BVA  - Mayer's bonded valence
  FA   - Mayer's free valence

  ATOM       NA         ZA         QA         VA         BVA        FA
  0 Ne     2.0000    10.0000     8.0000    -0.0000     0.0000    -0.0000

  Mayer bond orders larger than 0.100000


--------------------------
ATOM BASIS FOR ELEMENT Ne
--------------------------
 NewGTO Ne
 S 20
    1      24350.000000000000         0.000503935359
    2       3650.000000000000         0.003895962406
    3        829.600000000000         0.020074094364
    4        234.000000000000         0.078720324642
    5         75.610000000000         0.230561469081
    6         26.730000000000         0.434390271617
    7          9.927000000000         0.351993828879
    8          1.102000000000        -0.007674473742
    9      24350.000000000000         0.000000001752
   10       3650.000000000000         0.000000013584
   11        829.600000000000         0.000000070324
   12        234.000000000000         0.000000285526
   13         75.610000000000         0.000000896216
   14         26.730000000000         0.000002115622
   15          9.927000000000         0.000002638218
   16          1.102000000000        -0.000008994021
   17          2.836000000000         0.036074650120
   18          0.378200000000         0.001675113090
   19         12.083000000000         0.002476589965
   20         31.947000000000        -0.001592761655
 S 20
    1      24350.000000000000         0.000046700943
    2       3650.000000000000         0.000361048528
    3        829.600000000000         0.001860316264
    4        234.000000000000         0.007295208319
    5         75.610000000000         0.021366704913
    6         26.730000000000         0.040256027113
    7          9.927000000000         0.032620143785
    8          1.102000000000        -0.000711212574
    9      24350.000000000000         0.000122131743
   10       3650.000000000000         0.000947038513
   11        829.600000000000         0.004902864956
   12        234.000000000000         0.019906439033
   13         75.610000000000         0.062482806530
   14         26.730000000000         0.147497884560
   15          9.927000000000         0.183932474424
   16          1.102000000000        -0.627049206996
   17          2.836000000000        -0.561612342097
   18          0.378200000000         0.008262707160
   19         12.083000000000         0.039437244921
   20         31.947000000000         0.016699665285
 S 20
    1      24350.000000000000        -0.000032210410
    2       3650.000000000000        -0.000249021121
    3        829.600000000000        -0.001283090788
    4        234.000000000000        -0.005031625414
    5         75.610000000000        -0.014736968534
    6         26.730000000000        -0.027765245381
    7          9.927000000000        -0.022498650798
    8          1.102000000000         0.000490535034
    9      24350.000000000000         0.000118559339
   10       3650.000000000000         0.000919337250
   11        829.600000000000         0.004759454157
   12        234.000000000000         0.019324167575
   13         75.610000000000         0.060655158962
   14         26.730000000000         0.143183511294
   15          9.927000000000         0.178552374548
   16          1.102000000000        -0.608707762008
   17          2.836000000000        -0.606756633296
   18          0.378200000000         1.443811691498
   19         12.083000000000         0.011082031268
   20         31.947000000000        -0.002986955888
 S 20
    1      24350.000000000000         0.000940015055
    2       3650.000000000000         0.007267327550
    3        829.600000000000         0.037445181399
    4        234.000000000000         0.146840837873
    5         75.610000000000         0.430077485774
    6         26.730000000000         0.810289232654
    7          9.927000000000         0.656591153480
    8          1.102000000000        -0.014315567925
    9      24350.000000000000        -0.000712637284
   10       3650.000000000000        -0.005525958602
   11        829.600000000000        -0.028608159449
   12        234.000000000000        -0.116153838016
   13         75.610000000000        -0.364586442426
   14         26.730000000000        -0.860648424478
   15          9.927000000000        -1.073243828515
   16          1.102000000000         3.658824759958
   17          2.836000000000        -2.830661314009
   18          0.378200000000        -1.616577044509
   19         12.083000000000         0.929434110348
   20         31.947000000000         0.137467097508
 S 20
    1      24350.000000000000         0.000040806674
    2       3650.000000000000         0.000315479488
    3        829.600000000000         0.001625520050
    4        234.000000000000         0.006374457733
    5         75.610000000000         0.018669947642
    6         26.730000000000         0.035175190631
    7          9.927000000000         0.028503055526
    8          1.102000000000        -0.000621448256
    9      24350.000000000000        -0.000316676671
   10       3650.000000000000        -0.002455586052
   11        829.600000000000        -0.012712689756
   12        234.000000000000        -0.051615613695
   13         75.610000000000        -0.162012321696
   14         26.730000000000        -0.382448805516
   15          9.927000000000        -0.476920434139
   16          1.102000000000         1.625882438452
   17          2.836000000000        -2.368245541551
   18          0.378200000000        -0.495735303365
   19         12.083000000000         3.517518121751
   20         31.947000000000        -1.519370259153
 S 20
    1      24350.000000000000        -0.003600930822
    2       3650.000000000000        -0.027839068764
    3        829.600000000000        -0.143441859849
    4        234.000000000000        -0.562505564117
    5         75.610000000000        -1.647504755848
    6         26.730000000000        -3.103988022083
    7          9.927000000000        -2.515214313206
    8          1.102000000000         0.054838876759
    9      24350.000000000000         0.000161033165
   10       3650.000000000000         0.001248689373
   11        829.600000000000         0.006464526297
   12        234.000000000000         0.026247041222
   13         75.610000000000         0.082384840197
   14         26.730000000000         0.194478934665
   15          9.927000000000         0.242518675999
   16          1.102000000000        -0.826777022072
   17          2.836000000000         1.268949950982
   18          0.378200000000         0.230016512120
   19         12.083000000000         0.724666806695
   20         31.947000000000         5.537353272352
 P 7
    1         54.700000000000         0.032784276052
    2         12.430000000000         0.205785319960
    3          3.679000000000         0.614895848909
    4          1.143000000000         0.329395707024
    5          0.330000000000        -0.016997459024
    6         22.827000000000         0.002564800757
    7         87.017000000000        -0.000751987532
 P 7
    1         54.700000000000         0.023894440880
    2         12.430000000000         0.149984253246
    3          3.679000000000         0.448159736276
    4          1.143000000000        -0.342598424734
    5          0.330000000000        -0.793575452545
    6         22.827000000000        -0.014908707910
    7         87.017000000000        -0.001530775008
 P 7
    1         54.700000000000         0.039028603187
    2         12.430000000000         0.244980660295
    3          3.679000000000         0.732013299625
    4          1.143000000000        -1.603060132220
    5          0.330000000000         1.102974803266
    6         22.827000000000        -0.041972519305
    7         87.017000000000        -0.003067525979
 P 7
    1         54.700000000000        -0.046784016440
    2         12.430000000000        -0.293661015324
    3          3.679000000000        -0.877472403493
    4          1.143000000000         0.612362794518
    5          0.330000000000        -0.214646148487
    6         22.827000000000         1.348113052369
    7         87.017000000000        -0.011436565716
 P 7
    1         54.700000000000         0.016975600580
    2         12.430000000000         0.106555026299
    3          3.679000000000         0.318391240756
    4          1.143000000000        -0.198944268066
    5          0.330000000000         0.068142870900
    6         22.827000000000        -0.963862051377
    7         87.017000000000         1.278876643013
 D 3
    1          4.014000000000         0.186927164212
    2          1.096000000000         0.892043082150
    3         23.168000000000         0.010474223816
 D 3
    1          4.014000000000         1.130865092371
    2          1.096000000000        -0.733221196625
    3         23.168000000000         0.023251023563
 D 3
    1          4.014000000000        -0.419012601225
    2          1.096000000000         0.155090219680
    3         23.168000000000         1.056827783305
 F 1
    1          2.544000000000         1.000000000000
 end
  // -----------------------------------------------
  // The basis set
  // -----------------------------------------------
  BAS[ATNO] = new BFNGauss[NSH];
  // Basis function   1 L = s
  InitBFNGauss(BAS[ATNO][  0]);
  BAS[ATNO][  0].l  = 0;
  BAS[ATNO][  0].ng = 20;
  BAS[ATNO][  0].a[  0] =     24350.000000000000;     BAS[ATNO][  0].d[  0] =         0.000503935359;
  BAS[ATNO][  0].a[  1] =      3650.000000000000;     BAS[ATNO][  0].d[  1] =         0.003895962406;
  BAS[ATNO][  0].a[  2] =       829.600000000000;     BAS[ATNO][  0].d[  2] =         0.020074094364;
  BAS[ATNO][  0].a[  3] =       234.000000000000;     BAS[ATNO][  0].d[  3] =         0.078720324642;
  BAS[ATNO][  0].a[  4] =        75.610000000000;     BAS[ATNO][  0].d[  4] =         0.230561469081;
  BAS[ATNO][  0].a[  5] =        26.730000000000;     BAS[ATNO][  0].d[  5] =         0.434390271617;
  BAS[ATNO][  0].a[  6] =         9.927000000000;     BAS[ATNO][  0].d[  6] =         0.351993828879;
  BAS[ATNO][  0].a[  7] =         1.102000000000;     BAS[ATNO][  0].d[  7] =        -0.007674473742;
  BAS[ATNO][  0].a[  8] =     24350.000000000000;     BAS[ATNO][  0].d[  8] =         0.000000001752;
  BAS[ATNO][  0].a[  9] =      3650.000000000000;     BAS[ATNO][  0].d[  9] =         0.000000013584;
  BAS[ATNO][  0].a[ 10] =       829.600000000000;     BAS[ATNO][  0].d[ 10] =         0.000000070324;
  BAS[ATNO][  0].a[ 11] =       234.000000000000;     BAS[ATNO][  0].d[ 11] =         0.000000285526;
  BAS[ATNO][  0].a[ 12] =        75.610000000000;     BAS[ATNO][  0].d[ 12] =         0.000000896216;
  BAS[ATNO][  0].a[ 13] =        26.730000000000;     BAS[ATNO][  0].d[ 13] =         0.000002115622;
  BAS[ATNO][  0].a[ 14] =         9.927000000000;     BAS[ATNO][  0].d[ 14] =         0.000002638218;
  BAS[ATNO][  0].a[ 15] =         1.102000000000;     BAS[ATNO][  0].d[ 15] =        -0.000008994021;
  BAS[ATNO][  0].a[ 16] =         2.836000000000;     BAS[ATNO][  0].d[ 16] =         0.036074650120;
  BAS[ATNO][  0].a[ 17] =         0.378200000000;     BAS[ATNO][  0].d[ 17] =         0.001675113090;
  BAS[ATNO][  0].a[ 18] =        12.083000000000;     BAS[ATNO][  0].d[ 18] =         0.002476589965;
  BAS[ATNO][  0].a[ 19] =        31.947000000000;     BAS[ATNO][  0].d[ 19] =        -0.001592761655;

  // Basis function   2 L = s
  InitBFNGauss(BAS[ATNO][  1]);
  BAS[ATNO][  1].l  = 0;
  BAS[ATNO][  1].ng = 20;
  BAS[ATNO][  1].a[  0] =     24350.000000000000;     BAS[ATNO][  1].d[  0] =        -0.000046700943;
  BAS[ATNO][  1].a[  1] =      3650.000000000000;     BAS[ATNO][  1].d[  1] =        -0.000361048528;
  BAS[ATNO][  1].a[  2] =       829.600000000000;     BAS[ATNO][  1].d[  2] =        -0.001860316264;
  BAS[ATNO][  1].a[  3] =       234.000000000000;     BAS[ATNO][  1].d[  3] =        -0.007295208319;
  BAS[ATNO][  1].a[  4] =        75.610000000000;     BAS[ATNO][  1].d[  4] =        -0.021366704913;
  BAS[ATNO][  1].a[  5] =        26.730000000000;     BAS[ATNO][  1].d[  5] =        -0.040256027113;
  BAS[ATNO][  1].a[  6] =         9.927000000000;     BAS[ATNO][  1].d[  6] =        -0.032620143785;
  BAS[ATNO][  1].a[  7] =         1.102000000000;     BAS[ATNO][  1].d[  7] =         0.000711212574;
  BAS[ATNO][  1].a[  8] =     24350.000000000000;     BAS[ATNO][  1].d[  8] =        -0.000122131743;
  BAS[ATNO][  1].a[  9] =      3650.000000000000;     BAS[ATNO][  1].d[  9] =        -0.000947038513;
  BAS[ATNO][  1].a[ 10] =       829.600000000000;     BAS[ATNO][  1].d[ 10] =        -0.004902864956;
  BAS[ATNO][  1].a[ 11] =       234.000000000000;     BAS[ATNO][  1].d[ 11] =        -0.019906439033;
  BAS[ATNO][  1].a[ 12] =        75.610000000000;     BAS[ATNO][  1].d[ 12] =        -0.062482806530;
  BAS[ATNO][  1].a[ 13] =        26.730000000000;     BAS[ATNO][  1].d[ 13] =        -0.147497884560;
  BAS[ATNO][  1].a[ 14] =         9.927000000000;     BAS[ATNO][  1].d[ 14] =        -0.183932474424;
  BAS[ATNO][  1].a[ 15] =         1.102000000000;     BAS[ATNO][  1].d[ 15] =         0.627049206996;
  BAS[ATNO][  1].a[ 16] =         2.836000000000;     BAS[ATNO][  1].d[ 16] =         0.561612342097;
  BAS[ATNO][  1].a[ 17] =         0.378200000000;     BAS[ATNO][  1].d[ 17] =        -0.008262707160;
  BAS[ATNO][  1].a[ 18] =        12.083000000000;     BAS[ATNO][  1].d[ 18] =        -0.039437244921;
  BAS[ATNO][  1].a[ 19] =        31.947000000000;     BAS[ATNO][  1].d[ 19] =        -0.016699665285;

  // Basis function   3 L = s
  InitBFNGauss(BAS[ATNO][  2]);
  BAS[ATNO][  2].l  = 0;
  BAS[ATNO][  2].ng = 20;
  BAS[ATNO][  2].a[  0] =     24350.000000000000;     BAS[ATNO][  2].d[  0] =        -0.000032210410;
  BAS[ATNO][  2].a[  1] =      3650.000000000000;     BAS[ATNO][  2].d[  1] =        -0.000249021121;
  BAS[ATNO][  2].a[  2] =       829.600000000000;     BAS[ATNO][  2].d[  2] =        -0.001283090788;
  BAS[ATNO][  2].a[  3] =       234.000000000000;     BAS[ATNO][  2].d[  3] =        -0.005031625414;
  BAS[ATNO][  2].a[  4] =        75.610000000000;     BAS[ATNO][  2].d[  4] =        -0.014736968534;
  BAS[ATNO][  2].a[  5] =        26.730000000000;     BAS[ATNO][  2].d[  5] =        -0.027765245381;
  BAS[ATNO][  2].a[  6] =         9.927000000000;     BAS[ATNO][  2].d[  6] =        -0.022498650798;
  BAS[ATNO][  2].a[  7] =         1.102000000000;     BAS[ATNO][  2].d[  7] =         0.000490535034;
  BAS[ATNO][  2].a[  8] =     24350.000000000000;     BAS[ATNO][  2].d[  8] =         0.000118559339;
  BAS[ATNO][  2].a[  9] =      3650.000000000000;     BAS[ATNO][  2].d[  9] =         0.000919337250;
  BAS[ATNO][  2].a[ 10] =       829.600000000000;     BAS[ATNO][  2].d[ 10] =         0.004759454157;
  BAS[ATNO][  2].a[ 11] =       234.000000000000;     BAS[ATNO][  2].d[ 11] =         0.019324167575;
  BAS[ATNO][  2].a[ 12] =        75.610000000000;     BAS[ATNO][  2].d[ 12] =         0.060655158962;
  BAS[ATNO][  2].a[ 13] =        26.730000000000;     BAS[ATNO][  2].d[ 13] =         0.143183511294;
  BAS[ATNO][  2].a[ 14] =         9.927000000000;     BAS[ATNO][  2].d[ 14] =         0.178552374548;
  BAS[ATNO][  2].a[ 15] =         1.102000000000;     BAS[ATNO][  2].d[ 15] =        -0.608707762008;
  BAS[ATNO][  2].a[ 16] =         2.836000000000;     BAS[ATNO][  2].d[ 16] =        -0.606756633296;
  BAS[ATNO][  2].a[ 17] =         0.378200000000;     BAS[ATNO][  2].d[ 17] =         1.443811691498;
  BAS[ATNO][  2].a[ 18] =        12.083000000000;     BAS[ATNO][  2].d[ 18] =         0.011082031268;
  BAS[ATNO][  2].a[ 19] =        31.947000000000;     BAS[ATNO][  2].d[ 19] =        -0.002986955888;

  // Basis function   4 L = s
  InitBFNGauss(BAS[ATNO][  3]);
  BAS[ATNO][  3].l  = 0;
  BAS[ATNO][  3].ng = 20;
  BAS[ATNO][  3].a[  0] =     24350.000000000000;     BAS[ATNO][  3].d[  0] =         0.000940015055;
  BAS[ATNO][  3].a[  1] =      3650.000000000000;     BAS[ATNO][  3].d[  1] =         0.007267327550;
  BAS[ATNO][  3].a[  2] =       829.600000000000;     BAS[ATNO][  3].d[  2] =         0.037445181399;
  BAS[ATNO][  3].a[  3] =       234.000000000000;     BAS[ATNO][  3].d[  3] =         0.146840837873;
  BAS[ATNO][  3].a[  4] =        75.610000000000;     BAS[ATNO][  3].d[  4] =         0.430077485774;
  BAS[ATNO][  3].a[  5] =        26.730000000000;     BAS[ATNO][  3].d[  5] =         0.810289232654;
  BAS[ATNO][  3].a[  6] =         9.927000000000;     BAS[ATNO][  3].d[  6] =         0.656591153480;
  BAS[ATNO][  3].a[  7] =         1.102000000000;     BAS[ATNO][  3].d[  7] =        -0.014315567925;
  BAS[ATNO][  3].a[  8] =     24350.000000000000;     BAS[ATNO][  3].d[  8] =        -0.000712637284;
  BAS[ATNO][  3].a[  9] =      3650.000000000000;     BAS[ATNO][  3].d[  9] =        -0.005525958602;
  BAS[ATNO][  3].a[ 10] =       829.600000000000;     BAS[ATNO][  3].d[ 10] =        -0.028608159449;
  BAS[ATNO][  3].a[ 11] =       234.000000000000;     BAS[ATNO][  3].d[ 11] =        -0.116153838016;
  BAS[ATNO][  3].a[ 12] =        75.610000000000;     BAS[ATNO][  3].d[ 12] =        -0.364586442426;
  BAS[ATNO][  3].a[ 13] =        26.730000000000;     BAS[ATNO][  3].d[ 13] =        -0.860648424478;
  BAS[ATNO][  3].a[ 14] =         9.927000000000;     BAS[ATNO][  3].d[ 14] =        -1.073243828515;
  BAS[ATNO][  3].a[ 15] =         1.102000000000;     BAS[ATNO][  3].d[ 15] =         3.658824759958;
  BAS[ATNO][  3].a[ 16] =         2.836000000000;     BAS[ATNO][  3].d[ 16] =        -2.830661314009;
  BAS[ATNO][  3].a[ 17] =         0.378200000000;     BAS[ATNO][  3].d[ 17] =        -1.616577044509;
  BAS[ATNO][  3].a[ 18] =        12.083000000000;     BAS[ATNO][  3].d[ 18] =         0.929434110348;
  BAS[ATNO][  3].a[ 19] =        31.947000000000;     BAS[ATNO][  3].d[ 19] =         0.137467097508;

  // Basis function   5 L = s
  InitBFNGauss(BAS[ATNO][  4]);
  BAS[ATNO][  4].l  = 0;
  BAS[ATNO][  4].ng = 20;
  BAS[ATNO][  4].a[  0] =     24350.000000000000;     BAS[ATNO][  4].d[  0] =         0.000040806674;
  BAS[ATNO][  4].a[  1] =      3650.000000000000;     BAS[ATNO][  4].d[  1] =         0.000315479488;
  BAS[ATNO][  4].a[  2] =       829.600000000000;     BAS[ATNO][  4].d[  2] =         0.001625520050;
  BAS[ATNO][  4].a[  3] =       234.000000000000;     BAS[ATNO][  4].d[  3] =         0.006374457733;
  BAS[ATNO][  4].a[  4] =        75.610000000000;     BAS[ATNO][  4].d[  4] =         0.018669947642;
  BAS[ATNO][  4].a[  5] =        26.730000000000;     BAS[ATNO][  4].d[  5] =         0.035175190631;
  BAS[ATNO][  4].a[  6] =         9.927000000000;     BAS[ATNO][  4].d[  6] =         0.028503055526;
  BAS[ATNO][  4].a[  7] =         1.102000000000;     BAS[ATNO][  4].d[  7] =        -0.000621448256;
  BAS[ATNO][  4].a[  8] =     24350.000000000000;     BAS[ATNO][  4].d[  8] =        -0.000316676671;
  BAS[ATNO][  4].a[  9] =      3650.000000000000;     BAS[ATNO][  4].d[  9] =        -0.002455586052;
  BAS[ATNO][  4].a[ 10] =       829.600000000000;     BAS[ATNO][  4].d[ 10] =        -0.012712689756;
  BAS[ATNO][  4].a[ 11] =       234.000000000000;     BAS[ATNO][  4].d[ 11] =        -0.051615613695;
  BAS[ATNO][  4].a[ 12] =        75.610000000000;     BAS[ATNO][  4].d[ 12] =        -0.162012321696;
  BAS[ATNO][  4].a[ 13] =        26.730000000000;     BAS[ATNO][  4].d[ 13] =        -0.382448805516;
  BAS[ATNO][  4].a[ 14] =         9.927000000000;     BAS[ATNO][  4].d[ 14] =        -0.476920434139;
  BAS[ATNO][  4].a[ 15] =         1.102000000000;     BAS[ATNO][  4].d[ 15] =         1.625882438452;
  BAS[ATNO][  4].a[ 16] =         2.836000000000;     BAS[ATNO][  4].d[ 16] =        -2.368245541551;
  BAS[ATNO][  4].a[ 17] =         0.378200000000;     BAS[ATNO][  4].d[ 17] =        -0.495735303365;
  BAS[ATNO][  4].a[ 18] =        12.083000000000;     BAS[ATNO][  4].d[ 18] =         3.517518121751;
  BAS[ATNO][  4].a[ 19] =        31.947000000000;     BAS[ATNO][  4].d[ 19] =        -1.519370259153;

  // Basis function   6 L = s
  InitBFNGauss(BAS[ATNO][  5]);
  BAS[ATNO][  5].l  = 0;
  BAS[ATNO][  5].ng = 20;
  BAS[ATNO][  5].a[  0] =     24350.000000000000;     BAS[ATNO][  5].d[  0] =        -0.003600930822;
  BAS[ATNO][  5].a[  1] =      3650.000000000000;     BAS[ATNO][  5].d[  1] =        -0.027839068764;
  BAS[ATNO][  5].a[  2] =       829.600000000000;     BAS[ATNO][  5].d[  2] =        -0.143441859849;
  BAS[ATNO][  5].a[  3] =       234.000000000000;     BAS[ATNO][  5].d[  3] =        -0.562505564117;
  BAS[ATNO][  5].a[  4] =        75.610000000000;     BAS[ATNO][  5].d[  4] =        -1.647504755848;
  BAS[ATNO][  5].a[  5] =        26.730000000000;     BAS[ATNO][  5].d[  5] =        -3.103988022083;
  BAS[ATNO][  5].a[  6] =         9.927000000000;     BAS[ATNO][  5].d[  6] =        -2.515214313206;
  BAS[ATNO][  5].a[  7] =         1.102000000000;     BAS[ATNO][  5].d[  7] =         0.054838876759;
  BAS[ATNO][  5].a[  8] =     24350.000000000000;     BAS[ATNO][  5].d[  8] =         0.000161033165;
  BAS[ATNO][  5].a[  9] =      3650.000000000000;     BAS[ATNO][  5].d[  9] =         0.001248689373;
  BAS[ATNO][  5].a[ 10] =       829.600000000000;     BAS[ATNO][  5].d[ 10] =         0.006464526297;
  BAS[ATNO][  5].a[ 11] =       234.000000000000;     BAS[ATNO][  5].d[ 11] =         0.026247041222;
  BAS[ATNO][  5].a[ 12] =        75.610000000000;     BAS[ATNO][  5].d[ 12] =         0.082384840197;
  BAS[ATNO][  5].a[ 13] =        26.730000000000;     BAS[ATNO][  5].d[ 13] =         0.194478934665;
  BAS[ATNO][  5].a[ 14] =         9.927000000000;     BAS[ATNO][  5].d[ 14] =         0.242518675999;
  BAS[ATNO][  5].a[ 15] =         1.102000000000;     BAS[ATNO][  5].d[ 15] =        -0.826777022072;
  BAS[ATNO][  5].a[ 16] =         2.836000000000;     BAS[ATNO][  5].d[ 16] =         1.268949950982;
  BAS[ATNO][  5].a[ 17] =         0.378200000000;     BAS[ATNO][  5].d[ 17] =         0.230016512120;
  BAS[ATNO][  5].a[ 18] =        12.083000000000;     BAS[ATNO][  5].d[ 18] =         0.724666806695;
  BAS[ATNO][  5].a[ 19] =        31.947000000000;     BAS[ATNO][  5].d[ 19] =         5.537353272352;

  // Basis function   7 L = p
  InitBFNGauss(BAS[ATNO][  6]);
  BAS[ATNO][  6].l  = 1;
  BAS[ATNO][  6].ng = 7;
  BAS[ATNO][  6].a[  0] =        54.700000000000;     BAS[ATNO][  6].d[  0] =         0.032784276052;
  BAS[ATNO][  6].a[  1] =        12.430000000000;     BAS[ATNO][  6].d[  1] =         0.205785319960;
  BAS[ATNO][  6].a[  2] =         3.679000000000;     BAS[ATNO][  6].d[  2] =         0.614895848909;
  BAS[ATNO][  6].a[  3] =         1.143000000000;     BAS[ATNO][  6].d[  3] =         0.329395707024;
  BAS[ATNO][  6].a[  4] =         0.330000000000;     BAS[ATNO][  6].d[  4] =        -0.016997459024;
  BAS[ATNO][  6].a[  5] =        22.827000000000;     BAS[ATNO][  6].d[  5] =         0.002564800757;
  BAS[ATNO][  6].a[  6] =        87.017000000000;     BAS[ATNO][  6].d[  6] =        -0.000751987532;

  // Basis function   8 L = p
  InitBFNGauss(BAS[ATNO][  7]);
  BAS[ATNO][  7].l  = 1;
  BAS[ATNO][  7].ng = 7;
  BAS[ATNO][  7].a[  0] =        54.700000000000;     BAS[ATNO][  7].d[  0] =        -0.023894440880;
  BAS[ATNO][  7].a[  1] =        12.430000000000;     BAS[ATNO][  7].d[  1] =        -0.149984253246;
  BAS[ATNO][  7].a[  2] =         3.679000000000;     BAS[ATNO][  7].d[  2] =        -0.448159736276;
  BAS[ATNO][  7].a[  3] =         1.143000000000;     BAS[ATNO][  7].d[  3] =         0.342598424734;
  BAS[ATNO][  7].a[  4] =         0.330000000000;     BAS[ATNO][  7].d[  4] =         0.793575452545;
  BAS[ATNO][  7].a[  5] =        22.827000000000;     BAS[ATNO][  7].d[  5] =         0.014908707910;
  BAS[ATNO][  7].a[  6] =        87.017000000000;     BAS[ATNO][  7].d[  6] =         0.001530775008;

  // Basis function   9 L = p
  InitBFNGauss(BAS[ATNO][  8]);
  BAS[ATNO][  8].l  = 1;
  BAS[ATNO][  8].ng = 7;
  BAS[ATNO][  8].a[  0] =        54.700000000000;     BAS[ATNO][  8].d[  0] =        -0.039028603187;
  BAS[ATNO][  8].a[  1] =        12.430000000000;     BAS[ATNO][  8].d[  1] =        -0.244980660295;
  BAS[ATNO][  8].a[  2] =         3.679000000000;     BAS[ATNO][  8].d[  2] =        -0.732013299625;
  BAS[ATNO][  8].a[  3] =         1.143000000000;     BAS[ATNO][  8].d[  3] =         1.603060132220;
  BAS[ATNO][  8].a[  4] =         0.330000000000;     BAS[ATNO][  8].d[  4] =        -1.102974803266;
  BAS[ATNO][  8].a[  5] =        22.827000000000;     BAS[ATNO][  8].d[  5] =         0.041972519305;
  BAS[ATNO][  8].a[  6] =        87.017000000000;     BAS[ATNO][  8].d[  6] =         0.003067525979;

  // Basis function  10 L = p
  InitBFNGauss(BAS[ATNO][  9]);
  BAS[ATNO][  9].l  = 1;
  BAS[ATNO][  9].ng = 7;
  BAS[ATNO][  9].a[  0] =        54.700000000000;     BAS[ATNO][  9].d[  0] =        -0.046784016440;
  BAS[ATNO][  9].a[  1] =        12.430000000000;     BAS[ATNO][  9].d[  1] =        -0.293661015324;
  BAS[ATNO][  9].a[  2] =         3.679000000000;     BAS[ATNO][  9].d[  2] =        -0.877472403493;
  BAS[ATNO][  9].a[  3] =         1.143000000000;     BAS[ATNO][  9].d[  3] =         0.612362794518;
  BAS[ATNO][  9].a[  4] =         0.330000000000;     BAS[ATNO][  9].d[  4] =        -0.214646148487;
  BAS[ATNO][  9].a[  5] =        22.827000000000;     BAS[ATNO][  9].d[  5] =         1.348113052369;
  BAS[ATNO][  9].a[  6] =        87.017000000000;     BAS[ATNO][  9].d[  6] =        -0.011436565716;

  // Basis function  11 L = p
  InitBFNGauss(BAS[ATNO][ 10]);
  BAS[ATNO][ 10].l  = 1;
  BAS[ATNO][ 10].ng = 7;
  BAS[ATNO][ 10].a[  0] =        54.700000000000;     BAS[ATNO][ 10].d[  0] =         0.016975600580;
  BAS[ATNO][ 10].a[  1] =        12.430000000000;     BAS[ATNO][ 10].d[  1] =         0.106555026299;
  BAS[ATNO][ 10].a[  2] =         3.679000000000;     BAS[ATNO][ 10].d[  2] =         0.318391240756;
  BAS[ATNO][ 10].a[  3] =         1.143000000000;     BAS[ATNO][ 10].d[  3] =        -0.198944268066;
  BAS[ATNO][ 10].a[  4] =         0.330000000000;     BAS[ATNO][ 10].d[  4] =         0.068142870900;
  BAS[ATNO][ 10].a[  5] =        22.827000000000;     BAS[ATNO][ 10].d[  5] =        -0.963862051377;
  BAS[ATNO][ 10].a[  6] =        87.017000000000;     BAS[ATNO][ 10].d[  6] =         1.278876643013;

  // Basis function  12 L = d
  InitBFNGauss(BAS[ATNO][ 11]);
  BAS[ATNO][ 11].l  = 2;
  BAS[ATNO][ 11].ng = 3;
  BAS[ATNO][ 11].a[  0] =         4.014000000000;     BAS[ATNO][ 11].d[  0] =         0.186927164212;
  BAS[ATNO][ 11].a[  1] =         1.096000000000;     BAS[ATNO][ 11].d[  1] =         0.892043082150;
  BAS[ATNO][ 11].a[  2] =        23.168000000000;     BAS[ATNO][ 11].d[  2] =         0.010474223816;

  // Basis function  13 L = d
  InitBFNGauss(BAS[ATNO][ 12]);
  BAS[ATNO][ 12].l  = 2;
  BAS[ATNO][ 12].ng = 3;
  BAS[ATNO][ 12].a[  0] =         4.014000000000;     BAS[ATNO][ 12].d[  0] =         1.130865092371;
  BAS[ATNO][ 12].a[  1] =         1.096000000000;     BAS[ATNO][ 12].d[  1] =        -0.733221196625;
  BAS[ATNO][ 12].a[  2] =        23.168000000000;     BAS[ATNO][ 12].d[  2] =         0.023251023563;

  // Basis function  14 L = d
  InitBFNGauss(BAS[ATNO][ 13]);
  BAS[ATNO][ 13].l  = 2;
  BAS[ATNO][ 13].ng = 3;
  BAS[ATNO][ 13].a[  0] =         4.014000000000;     BAS[ATNO][ 13].d[  0] =        -0.419012601225;
  BAS[ATNO][ 13].a[  1] =         1.096000000000;     BAS[ATNO][ 13].d[  1] =         0.155090219680;
  BAS[ATNO][ 13].a[  2] =        23.168000000000;     BAS[ATNO][ 13].d[  2] =         1.056827783305;

  // Basis function  15 L = f
  InitBFNGauss(BAS[ATNO][ 14]);
  BAS[ATNO][ 14].l  = 3;
  BAS[ATNO][ 14].ng = 1;
  BAS[ATNO][ 14].a[  0] =         2.544000000000;     BAS[ATNO][ 14].d[  0] =         1.000000000000;

-------
TIMINGS
-------

Total SCF time: 0 days 0 hours 0 min 1 sec 

Total time                  ....       1.494 sec
Sum of individual times     ....       1.325 sec  ( 88.7%)

Fock matrix formation       ....       0.843 sec  ( 56.4%)
  XC integration            ....       0.018 sec  (  2.1% of F)
    Basis function eval.    ....       0.003 sec  ( 14.6% of XC)
    Density eval.           ....       0.001 sec  (  5.3% of XC)
    XC-Functional eval.     ....       0.001 sec  (  7.6% of XC)
    XC-Potential eval.      ....       0.001 sec  (  5.6% of XC)
Diagonalization             ....       0.001 sec  (  0.1%)
Density matrix formation    ....       0.001 sec  (  0.0%)
Population analysis         ....       0.001 sec  (  0.0%)
Initial guess               ....       0.093 sec  (  6.3%)
Orbital Transformation      ....       0.000 sec  (  0.0%)
Orbital Orthonormalization  ....       0.000 sec  (  0.0%)
DIIS solution               ....       0.000 sec  (  0.0%)
SOSCF solution              ....       0.001 sec  (  0.0%)
Grid generation             ....       0.385 sec  ( 25.8%)

-------------------------   --------------------
FINAL SINGLE POINT ENERGY       -93.211546845242
-------------------------   --------------------


                            ***************************************
                            *     ORCA property calculations      *
                            ***************************************

                                    ---------------------
                                    Active property flags
                                    ---------------------
   (+) Dipole Moment


------------------------------------------------------------------------------
                       ORCA ELECTRIC PROPERTIES CALCULATION
------------------------------------------------------------------------------

Dipole Moment Calculation                       ... on
Quadrupole Moment Calculation                   ... off
Polarizability Calculation                      ... off
GBWName                                         ... Ne_cc-pcvtz_2192.575824_.gbw
Electron density file                           ... Ne_cc-pcvtz_2192.575824_.scfp
The origin for moment calculation is the CENTER OF MASS  = ( 0.000000,  0.000000  0.000000)

-------------
DIPOLE MOMENT
-------------
                                X             Y             Z
Electronic contribution:     -0.00000       0.00000      -0.00000
Nuclear contribution   :      0.00000       0.00000       0.00000
                        -----------------------------------------
Total Dipole Moment    :     -0.00000       0.00000      -0.00000
                        -----------------------------------------
Magnitude (a.u.)       :      0.00000
Magnitude (Debye)      :      0.00000



--------------------
Rotational spectrum 
--------------------
 
Rotational constants in cm-1:     0.000000     0.000000     0.000000 
Rotational constants in MHz :     0.000000     0.000000     0.000000 

 Dipole components along the rotational axes: 
x,y,z [a.u.] :    -0.000000     0.000000    -0.000000 
x,y,z [Debye]:    -0.000000     0.000000    -0.000000 

 

Timings for individual modules:

Sum of individual times         ...        2.589 sec (=   0.043 min)
GTO integral calculation        ...        0.475 sec (=   0.008 min)  18.4 %
Relativistic integrals          ...        0.363 sec (=   0.006 min)  14.0 %
SCF iterations                  ...        1.751 sec (=   0.029 min)  67.6 %
                             ****ORCA TERMINATED NORMALLY****
TOTAL RUN TIME: 0 days 0 hours 0 minutes 2 seconds 904 msec
