
                                 *****************
                                 * O   R   C   A *
                                 *****************

           --- An Ab Initio, DFT and Semiempirical electronic structure package ---

                  #######################################################
                  #                        -***-                        #
                  #          Department of theory and spectroscopy      #
                  #               Directorship: Frank Neese             #
                  #        Max Planck Institute fuer Kohlenforschung    #
                  #                Kaiser Wilhelm Platz 1               #
                  #                 D-45470 Muelheim/Ruhr               #
                  #                      Germany                        #
                  #                                                     #
                  #                  All rights reserved                #
                  #                        -***-                        #
                  #######################################################


                         Program Version 4.2.1 -  RELEASE  -


 With contributions from (in alphabetic order):
   Daniel Aravena         : Magnetic Suceptibility
   Michael Atanasov       : Ab Initio Ligand Field Theory (pilot matlab implementation)
   Alexander A. Auer      : GIAO ZORA, VPT2
   Ute Becker             : Parallelization
   Giovanni Bistoni       : ED, misc. LED, open-shell LED, HFLD
   Martin Brehm           : Molecular dynamics
   Dmytro Bykov           : SCF Hessian
   Vijay G. Chilkuri      : MRCI spin determinant printing, contributions to CSF-ICE
   Dipayan Datta          : RHF DLPNO-CCSD density
   Achintya Kumar Dutta   : EOM-CC, STEOM-CC
   Dmitry Ganyushin       : Spin-Orbit,Spin-Spin,Magnetic field MRCI
   Miquel Garcia          : C-PCM Hessian, Gaussian charge scheme
   Yang Guo               : DLPNO-NEVPT2, CIM, IAO-localization
   Andreas Hansen         : Spin unrestricted coupled pair/coupled cluster methods
   Benjamin Helmich-Paris : CASSCF linear response (MC-RPA)
   Lee Huntington         : MR-EOM, pCC
   Robert Izsak           : Overlap fitted RIJCOSX, COSX-SCS-MP3, EOM
   Christian Kollmar      : KDIIS, OOCD, Brueckner-CCSD(T), CCSD density
   Simone Kossmann        : Meta GGA functionals, TD-DFT gradient, OOMP2, MP2 Hessian
   Martin Krupicka        : AUTO-CI
   Lucas Lang             : DCDCAS
   Dagmar Lenk            : GEPOL surface, SMD
   Dimitrios Liakos       : Extrapolation schemes; Compound Job, initial MDCI parallelization
   Dimitrios Manganas     : Further ROCIS development; embedding schemes
   Dimitrios Pantazis     : SARC Basis sets
   Taras Petrenko         : DFT Hessian,TD-DFT gradient, ASA, ECA, R-Raman, ABS, FL, XAS/XES, NRVS
   Peter Pinski           : DLPNO-MP2, DLPNO-MP2 Gradient
   Christoph Reimann      : Effective Core Potentials
   Marius Retegan         : Local ZFS, SOC
   Christoph Riplinger    : Optimizer, TS searches, QM/MM, DLPNO-CCSD(T), (RO)-DLPNO pert. Triples
   Tobias Risthaus        : Range-separated hybrids, TD-DFT gradient, RPA, STAB
   Michael Roemelt        : Original ROCIS implementation
   Masaaki Saitow         : Open-shell DLPNO-CCSD energy and density
   Barbara Sandhoefer     : DKH picture change effects
   Avijit Sen             : IP-ROCIS
   Kantharuban Sivalingam : CASSCF convergence, NEVPT2, FIC-MRCI
   Bernardo de Souza      : ESD, SOC TD-DFT
   Georgi Stoychev        : AutoAux, RI-MP2 NMR
   Willem Van den Heuvel  : Paramagnetic NMR
   Boris Wezisla          : Elementary symmetry handling
   Frank Wennmohs         : Technical directorship


 We gratefully acknowledge several colleagues who have allowed us to
 interface, adapt or use parts of their codes:
   Stefan Grimme, W. Hujo, H. Kruse,             : VdW corrections, initial TS optimization,
                  C. Bannwarth                     DFT functionals, gCP, sTDA/sTD-DF
   Ed Valeev, F. Pavosevic, A. Kumar             : LibInt (2-el integral package), F12 methods
   Garnet Chan, S. Sharma, J. Yang, R. Olivares  : DMRG
   Ulf Ekstrom                                   : XCFun DFT Library
   Mihaly Kallay                                 : mrcc  (arbitrary order and MRCC methods)
   Andreas Klamt, Michael Diedenhofen            : otool_cosmo (COSMO solvation model)
   Jiri Pittner, Ondrej Demel                    : Mk-CCSD
   Frank Weinhold                                : gennbo (NPA and NBO analysis)
   Christopher J. Cramer and Donald G. Truhlar   : smd solvation model
   Lars Goerigk                                  : TD-DFT with DH, B97 family of functionals
   V. Asgeirsson, H. Jonsson                     : NEB implementation
   FAccTs GmbH                                   : IRC, NEB, NEB-TS, Multilevel, MM, QM/MM, CI optimization
   S Lehtola, MJT Oliveira, MAL Marques          : LibXC Library


 Your calculation uses the libint2 library for the computation of 2-el integrals
 For citations please refer to: http://libint.valeyev.net

 Your ORCA version has been built with support for libXC version: 4.2.3
 For citations please refer to: https://tddft.org/programs/libxc/

 This ORCA versions uses:
   CBLAS   interface :  Fast vector & matrix operations
   LAPACKE interface :  Fast linear algebra routines
   SCALAPACK package :  Parallel linear algebra routines


----- Orbital basis set information -----
Your calculation utilizes the basis: cc-pCVQZ 
             H : cc-pVQZ. Obtained from the ccRepo (grant-hill.group.shef.ac.uk/ccrepo) Feb. 2017
                 T. H. Dunning, Jr., J. Chem. Phys. 90, 1007 (1989)
            He : cc-pVQZ. Obtained from the ccRepo (grant-hill.group.shef.ac.uk/ccrepo) Feb. 2017
                 D. E. Woon, T. H. Dunning, Jr., J. Chem. Phys. 100, 2975 (1994)
  Li-Be, Na-Mg : Obtained from the ccRepo (grant-hill.group.shef.ac.uk/ccrepo) Feb. 2017
                 B. P. Prascher, D. E. Woon, K. A. Peterson, T. H. Dunning, Jr., A. K. Wilson, Theor. Chem. Acc. 128, 69 (2011)
          B-Ne : Obtained from the ccRepo (grant-hill.group.shef.ac.uk/ccrepo) Feb. 2017
                 D. E. Woon, T. H. Dunning, Jr., J. Chem. Phys. 103, 4572 (1995)
                  K. A. Peterson, T. H. Dunning, Jr., J. Chem. Phys. 117, 10548 (2002)
         Al-Ar : Obtained from the EMSL Basis Set Exchange (bse.pnl.gov) Feb. 2017
                 K. A. Peterson, T. H. Dunning, Jr., J. Chem. Phys. 117, 10548 (2002)
            Ca : Obtained from the Peterson Research Group Website (tyr0.chem.wsu.edu/~kipeters) Feb. 2017
                 J. Koput, K. A. Peterson, J. Phys. Chem. A 106, 9595 (2002)
         Ga-Kr : Obtained from the Peterson Research Group Website (tyr0.chem.wsu.edu/~kipeters) Feb. 2017
                 N. J. DeYonker, K. A. Peterson, A. K. Wilson, J. Phys. Chem. A 111, 11383 (2007)

================================================================================
                                        WARNINGS
                       Please study these warnings very carefully!
================================================================================


INFO   : the flag for use of LIBINT has been found!

================================================================================
                                       INPUT FILE
================================================================================
NAME = Ne_cc-pcvqz_1096.287912_.inp
|  1> ! LDA cc-pcvqz nori grid5 finalgrid6 verytightscf
|  2> %Pal NProcs 18 End
|  3> 
|  4> % REL
|  5>   Method ZORA
|  6>   ModelPot 1, 0, 0, 0
|  7>   velit 1096.287912
|  8> END
|  9> 
| 10> *xyz 8 1
| 11> Ne 0.0 0.0 0.0
| 12> **                         ****END OF INPUT****
================================================================================

                       ****************************
                       * Single Point Calculation *
                       ****************************

---------------------------------
CARTESIAN COORDINATES (ANGSTROEM)
---------------------------------
  Ne     0.000000    0.000000    0.000000

----------------------------
CARTESIAN COORDINATES (A.U.)
----------------------------
  NO LB      ZA    FRAG     MASS         X           Y           Z
   0 Ne   10.0000    0    20.179    0.000000    0.000000    0.000000

--------------------------------
INTERNAL COORDINATES (ANGSTROEM)
--------------------------------
 Ne     0   0   0     0.000000000000     0.00000000     0.00000000

---------------------------
INTERNAL COORDINATES (A.U.)
---------------------------
 Ne     0   0   0     0.000000000000     0.00000000     0.00000000

---------------------
BASIS SET INFORMATION
---------------------
There are 1 groups of distinct atoms

 Group   1 Type Ne  : 24s9p5d3f1g contracted to 8s7p5d3f1g pattern {99111111/3111111/11111/111/1}

Atom   0Ne   basis set group =>   1


           ************************************************************
           *        Program running with 18 parallel MPI-processes    *
           *              working on a common directory               *
           ************************************************************
------------------------------------------------------------------------------
                           ORCA GTO INTEGRAL CALCULATION
------------------------------------------------------------------------------

                         BASIS SET STATISTICS AND STARTUP INFO

 # of primitive gaussian shells          ...   42
 # of primitive gaussian functions       ...  106
 # of contracted shells                  ...   24
 # of contracted basis functions         ...   84
 Highest angular momentum                ...    4
 Maximum contraction depth               ...    9
 Integral package used                   ... LIBINT
 Integral threshhold            Thresh   ...  1.000e-12
 Primitive cut-off              TCut     ...  1.000e-14


------------------------------ INTEGRAL EVALUATION ----------------------------


 * One electron integrals 
 Pre-screening matrix                    ... done
 Shell pair data                         ... done (   0.000 sec)



           ************************************************************
           *        Program running with 18 parallel MPI-processes    *
           *              working on a common directory               *
           ************************************************************
------------------------------------------------------------------------------
                          ORCA RELATIVISTIC HAMILTONIAN
------------------------------------------------------------------------------

Relativistic Method            ... ZORA(MP)
Treatment of potential         ... Van Wuellen
Nucleus model                  ... Point Nucleus
Speed of light used            ... 1096.28791200000001


            *************************************************
            *         ZERO ORDER REGULAR APPROXIMATION      *
            *                     ZORA(MP)                  *
            *            Programmed by FN according to      *
            *                   C. van Wuellen              *
            *       J. Chem. Phys. (1998) vol 109, 392-399  *
            *************************************************

Terms included in model potential: +V(e,N)
Basis function cutoff value   ... 1.000000e-12
Loading the fitted atomic densities  (DKH4)  ... done
Calculating the cutoffs                      ... done
Number of fit functions                      ... 11
Setting up the integration grid ... done


           ************************************************************
           *        Program running with 18 parallel MPI-processes    *
           *              working on a common directory               *
           ************************************************************
-------------------------------------------------------------------------------
                                 ORCA SCF
-------------------------------------------------------------------------------

------------
SCF SETTINGS
------------
Hamiltonian:
 Density Functional     Method          .... DFT(GTOs)
 Exchange Functional    Exchange        .... Slater
   X-Alpha parameter    XAlpha          ....  0.666667
 Correlation Functional Correlation     .... VWN-5
 Gradients option       PostSCFGGA      .... off
   Density functional embedding theory  .... OFF

Relativistic Settings:
 Scalar relativistic method             .... ZORA
 Speed of light used       Velit        ....       1096.28791
Orbital energies will be scaled


General Settings:
 Integral files         IntName         .... Ne_cc-pcvqz_1096.287912_
 Hartree-Fock type      HFTyp           .... RHF
 Total Charge           Charge          ....    8
 Multiplicity           Mult            ....    1
 Number of Electrons    NEL             ....    2
 Basis Dimension        Dim             ....   84
 Nuclear Repulsion      ENuc            ....      0.0000000000 Eh

Convergence Acceleration:
 DIIS                   CNVDIIS         .... on
   Start iteration      DIISMaxIt       ....    12
   Startup error        DIISStart       ....  0.200000
   # of expansion vecs  DIISMaxEq       ....     5
   Bias factor          DIISBfac        ....   1.050
   Max. coefficient     DIISMaxC        ....  10.000
 Newton-Raphson         CNVNR           .... off
 SOSCF                  CNVSOSCF        .... on
   Start iteration      SOSCFMaxIt      ....   150
   Startup grad/error   SOSCFStart      ....  0.003300
 Level Shifting         CNVShift        .... on
   Level shift para.    LevelShift      ....    0.2500
   Turn off err/grad.   ShiftErr        ....    0.0010
 Zerner damping         CNVZerner       .... off
 Static damping         CNVDamp         .... on
   Fraction old density DampFac         ....    0.7000
   Max. Damping (<1)    DampMax         ....    0.9800
   Min. Damping (>=0)   DampMin         ....    0.0000
   Turn off err/grad.   DampErr         ....    0.1000
 Fernandez-Rico         CNVRico         .... off

SCF Procedure:
 Maximum # iterations   MaxIter         ....   125
 SCF integral mode      SCFMode         .... Direct
   Integral package                     .... LIBINT
 Reset frequency        DirectResetFreq ....    20
 Integral Threshold     Thresh          ....  1.000e-12 Eh
 Primitive CutOff       TCut            ....  1.000e-14 Eh

Convergence Tolerance:
 Convergence Check Mode ConvCheckMode   .... Total+1el-Energy
 Convergence forced     ConvForced      .... 0
 Energy Change          TolE            ....  1.000e-09 Eh
 1-El. energy change                    ....  1.000e-06 Eh
 Orbital Gradient       TolG            ....  2.000e-06
 Orbital Rotation angle TolX            ....  2.000e-06
 DIIS Error             TolErr          ....  1.000e-08


Diagonalization of the overlap matrix:
Smallest eigenvalue                        ... 1.230e-04
Time for diagonalization                   ...    0.002 sec
Threshold for overlap eigenvalues          ... 1.000e-08
Number of eigenvalues below threshold      ... 0
Time for construction of square roots      ...    0.001 sec
Total time needed                          ...    0.004 sec

-------------------
DFT GRID GENERATION
-------------------

General Integration Accuracy     IntAcc      ...  5.010
Radial Grid Type                 RadialGrid  ... Gauss-Chebyshev
Angular Grid (max. acc.)         AngularGrid ... Lebedev-434
Angular grid pruning method      GridPruning ... 3 (G Style)
Weight generation scheme         WeightScheme... Becke
Basis function cutoff            BFCut       ...    1.0000e-12
Integration weight cutoff        WCut        ...    1.0000e-14
Grids for H and He will be reduced by one unit

# of grid points (after initial pruning)     ...  10818 (   0.0 sec)
# of grid points (after weights+screening)   ...  10818 (   0.0 sec)
Grid point division into batches done        ...    0.1 sec
Reduced shell lists constructed in    0.1 sec

Total number of grid points                  ...    10818
Total number of batches                      ...      170
Average number of points per batch           ...       63
Average number of grid points per atom       ...    10818
Average number of shells per batch           ...     0.00 ( 0.00%)
Average number of basis functions per batch  ...     0.00 ( 0.00%)
Average number of large shells per batch     ...     0.00 ( -nan%)
Average number of large basis fcns per batch ...     0.00 ( -nan%)
Maximum spatial batch extension              ...  16.29, 16.29, 16.29 au
Average spatial batch extension              ...   0.85,  0.86,  0.85 au

Time for grid setup =    0.127 sec

------------------------------
INITIAL GUESS: MODEL POTENTIAL
------------------------------
Loading ZORA relativistic densities                ... done
Calculating cut-offs                               ... done
Setting up the integral package                    ... done
Initializing the effective Hamiltonian             ... done
Starting the Coulomb interaction                   ... done (   0.0 sec)
Reading the grid                                   ... done
Mapping shells                                     ... done
Starting the XC term evaluation                    ... done (   0.0 sec)
  promolecular density results
     # of electrons  =     10.000000334
     EX              =    -11.053709298
     EC              =     -0.746638772
     EX+EC           =    -11.800348070
Transforming the Hamiltonian                       ... done (   0.0 sec)
Diagonalizing the Hamiltonian                      ... done (   0.0 sec)
Back transforming the eigenvectors                 ... done (   0.0 sec)
Now organizing SCF variables                       ... done
                      ------------------
                      INITIAL GUESS DONE (   0.2 sec)
                      ------------------
--------------
SCF ITERATIONS
--------------
ITER       Energy         Delta-E        Max-DP      RMS-DP      [F,P]     Damp
               ***  Starting incremental Fock matrix formation  ***
  0    -93.2036549577   0.000000000000 0.06285245  0.00089108  0.8375587 0.7000
  1    -93.2075592611  -0.003904303439 0.04320828  0.00061304  0.5777567 0.7000
  2    -93.2102338301  -0.002674569030 0.02950039  0.00041889  0.3973764 0.7000
                      *** Initiating the SOSCF procedure ***
                      *** Re-Reading the Fockian *** 
                      *** Removing any level shift *** 
ITER      Energy       Delta-E        Grad      Rot      Max-DP    RMS-DP
  3    -93.21207871  -0.0018448817  0.003002  0.003002  0.067135  0.000954
               *** Restarting incremental Fock matrix formation ***
  4    -93.21630087  -0.0042221602  0.006842  0.000113  0.003863  0.000053
  5    -93.21630393  -0.0000030553  0.000369  0.000006  0.000206  0.000003
                  ***Gradient check signals convergence***
              ***Rediagonalizing the Fockian in SOSCF/NRSCF***

               *****************************************************
               *                     SUCCESS                       *
               *           SCF CONVERGED AFTER   6 CYCLES          *
               *****************************************************

Setting up the final grid:

General Integration Accuracy     IntAcc      ...  5.340
Radial Grid Type                 RadialGrid  ... Gauss-Chebyshev
Angular Grid (max. acc.)         AngularGrid ... Lebedev-590
Angular grid pruning method      GridPruning ... 3 (G Style)
Weight generation scheme         WeightScheme... Becke
Basis function cutoff            BFCut       ...    1.0000e-12
Integration weight cutoff        WCut        ...    1.0000e-14
Grids for H and He will be reduced by one unit

# of grid points (after initial pruning)     ...  16840 (   0.0 sec)
# of grid points (after weights+screening)   ...  16840 (   0.0 sec)
Grid point division into batches done        ...    0.2 sec
Reduced shell lists constructed in    0.2 sec

Total number of grid points                  ...    16840
Total number of batches                      ...      264
Average number of points per batch           ...       63
Average number of grid points per atom       ...    16840
Average number of shells per batch           ...     0.00 ( 0.00%)
Average number of basis functions per batch  ...     0.00 ( 0.00%)
Average number of large shells per batch     ...     0.00 ( -nan%)
Average number of large basis fcns per batch ...     0.00 ( -nan%)
Maximum spatial batch extension              ...  16.63, 16.63, 16.63 au
Average spatial batch extension              ...   0.74,  0.74,  0.69 au

Final grid set up in    0.2 sec
Final integration                            ... done (   0.0 sec)
Change in XC energy                          ...     0.000000540
Integrated number of electrons               ...     1.999999906
Previous integrated no of electrons          ...     2.000000009

----------------
TOTAL SCF ENERGY
----------------

Total Energy       :          -93.21630340 Eh           -2536.54457 eV

Components:
Nuclear Repulsion  :            0.00000000 Eh               0.00000 eV
Electronic Energy  :          -93.21630340 Eh           -2536.54457 eV
One Electron Energy:          -99.85661883 Eh           -2717.23674 eV
Two Electron Energy:            6.64031544 Eh             180.69217 eV

Virial components:
Potential Energy   :         -186.28800436 Eh           -5069.15431 eV
Kinetic Energy     :           93.07170096 Eh            2532.60974 eV
Virial Ratio       :            2.00155367


DFT components:
N(Alpha)           :        0.999999952758 electrons
N(Beta)            :        0.999999952758 electrons
N(Total)           :        1.999999905517 electrons
E(X)               :       -5.146319238851 Eh       
E(C)               :       -0.202682234555 Eh       
E(XC)              :       -5.349001473406 Eh       
DFET-embed. en.    :        0.000000000000 Eh       

---------------
SCF CONVERGENCE
---------------

  Last Energy change         ...   -9.4172e-09  Tolerance :   1.0000e-09
  Last MAX-Density change    ...    6.0229e-09  Tolerance :   1.0000e-08
  Last RMS-Density change    ...    1.1445e-10  Tolerance :   1.0000e-09
  Last Orbital Gradient      ...    5.7723e-08  Tolerance :   2.0000e-06
  Last Orbital Rotation      ...    3.4441e-10  Tolerance :   2.0000e-06

             **** THE GBW FILE WAS UPDATED (Ne_cc-pcvqz_1096.287912_.gbw) ****
             **** DENSITY FILE WAS UPDATED (Ne_cc-pcvqz_1096.287912_.scfp) ****
             **** ENERGY FILE WAS UPDATED (Ne_cc-pcvqz_1096.287912_.en.tmp) ****
             **** THE GBW FILE WAS UPDATED (Ne_cc-pcvqz_1096.287912_.gbw) ****
             **** DENSITY FILE WAS UPDATED (Ne_cc-pcvqz_1096.287912_.scfp) ****
----------------
ORBITAL ENERGIES
----------------

  NO   OCC          E(Eh)            E(eV) 
   0   2.0000     -41.480420     -1128.7396 
   1   0.0000      -9.049149      -246.2399 
   2   0.0000      -8.612583      -234.3603 
   3   0.0000      -8.612583      -234.3603 
   4   0.0000      -8.612583      -234.3603 
   5   0.0000      -3.828896      -104.1896 
   6   0.0000      -3.687871      -100.3521 
   7   0.0000      -3.687871      -100.3521 
   8   0.0000      -3.687871      -100.3521 
   9   0.0000      -3.586853       -97.6032 
  10   0.0000      -3.586853       -97.6032 
  11   0.0000      -3.586853       -97.6032 
  12   0.0000      -3.586853       -97.6032 
  13   0.0000      -3.586853       -97.6032 
  14   0.0000      -1.902993       -51.7831 
  15   0.0000      -1.902993       -51.7831 
  16   0.0000      -1.902993       -51.7831 
  17   0.0000      -1.128979       -30.7211 
  18   0.0000      -0.444037       -12.0829 
  19   0.0000      -0.444037       -12.0829 
  20   0.0000      -0.444037       -12.0829 
  21   0.0000      -0.444037       -12.0829 
  22   0.0000      -0.444037       -12.0829 
  23   0.0000      -0.377310       -10.2671 
  24   0.0000      -0.377310       -10.2671 
  25   0.0000      -0.377310       -10.2671 
  26   0.0000      -0.377310       -10.2671 
  27   0.0000      -0.377310       -10.2671 
  28   0.0000      -0.377310       -10.2671 
  29   0.0000      -0.377310       -10.2671 
  30   0.0000       5.057987       137.6348 
  31   0.0000       5.057987       137.6348 
  32   0.0000       5.057987       137.6348 
  33   0.0000       7.385285       200.9638 
  34   0.0000       7.385285       200.9638 
  35   0.0000       7.385285       200.9638 
  36   0.0000       7.385285       200.9638 
  37   0.0000       7.385285       200.9638 
  38   0.0000       7.385285       200.9638 
  39   0.0000       7.385285       200.9638 
  40   0.0000       7.385285       200.9638 
  41   0.0000       7.385285       200.9638 
  42   0.0000      10.940257       297.6995 
  43   0.0000      10.940257       297.6995 
  44   0.0000      10.940257       297.6995 
  45   0.0000      10.940257       297.6995 
  46   0.0000      10.940257       297.6995 
  47   0.0000      10.940257       297.6995 
  48   0.0000      10.940257       297.6995 
  49   0.0000      11.262179       306.4595 
  50   0.0000      11.262179       306.4595 
  51   0.0000      11.262179       306.4595 
  52   0.0000      11.262179       306.4595 
  53   0.0000      11.262179       306.4595 
  54   0.0000      15.164895       412.6578 
  55   0.0000      39.045336      1062.4776 
  56   0.0000      39.045336      1062.4776 
  57   0.0000      39.045336      1062.4776 
  58   0.0000      63.328901      1723.2670 
  59   0.0000      63.328901      1723.2670 
  60   0.0000      63.328901      1723.2670 
  61   0.0000      63.328901      1723.2670 
  62   0.0000      63.328901      1723.2670 
  63   0.0000      84.536248      2300.3483 
  64   0.0000     100.210402      2726.8637 
  65   0.0000     100.210402      2726.8637 
  66   0.0000     100.210402      2726.8637 
  67   0.0000     100.210402      2726.8637 
  68   0.0000     100.210402      2726.8637 
  69   0.0000     100.210402      2726.8637 
  70   0.0000     100.210402      2726.8637 
  71   0.0000     164.149647      4466.7390 
  72   0.0000     164.149647      4466.7390 
  73   0.0000     164.149647      4466.7390 
  74   0.0000     296.854151      8077.8121 
  75   0.0000     296.854151      8077.8121 
  76   0.0000     296.854151      8077.8121 
  77   0.0000     296.854151      8077.8121 
  78   0.0000     296.854151      8077.8121 
  79   0.0000     317.051300      8627.4045 
  80   0.0000     588.496028     16013.7911 
  81   0.0000     588.496028     16013.7911 
  82   0.0000     588.496028     16013.7911 
  83   0.0000    1357.002439     36925.9136 

                    ********************************
                    * MULLIKEN POPULATION ANALYSIS *
                    ********************************

-----------------------
MULLIKEN ATOMIC CHARGES
-----------------------
   0 Ne:    8.000000
Sum of atomic charges:    8.0000000

--------------------------------
MULLIKEN REDUCED ORBITAL CHARGES
--------------------------------
  0 Nes       :     2.000000  s :     2.000000
      pz      :     0.000000  p :     0.000000
      px      :     0.000000
      py      :     0.000000
      dz2     :     0.000000  d :     0.000000
      dxz     :     0.000000
      dyz     :     0.000000
      dx2y2   :     0.000000
      dxy     :     0.000000
      f0      :     0.000000  f :     0.000000
      f+1     :     0.000000
      f-1     :     0.000000
      f+2     :     0.000000
      f-2     :     0.000000
      f+3     :     0.000000
      f-3     :     0.000000
      g0      :     0.000000  g :     0.000000
      g+1     :     0.000000
      g-1     :     0.000000
      g+2     :     0.000000
      g-2     :     0.000000
      g+3     :     0.000000
      g-3     :     0.000000
      g+4     :     0.000000
      g-4     :     0.000000


                     *******************************
                     * LOEWDIN POPULATION ANALYSIS *
                     *******************************

----------------------
LOEWDIN ATOMIC CHARGES
----------------------
   0 Ne:    8.000000

-------------------------------
LOEWDIN REDUCED ORBITAL CHARGES
-------------------------------
  0 Nes       :     2.000000  s :     2.000000
      pz      :     0.000000  p :     0.000000
      px      :     0.000000
      py      :     0.000000
      dz2     :     0.000000  d :     0.000000
      dxz     :     0.000000
      dyz     :     0.000000
      dx2y2   :     0.000000
      dxy     :     0.000000
      f0      :     0.000000  f :     0.000000
      f+1     :     0.000000
      f-1     :     0.000000
      f+2     :     0.000000
      f-2     :     0.000000
      f+3     :     0.000000
      f-3     :     0.000000
      g0      :     0.000000  g :     0.000000
      g+1     :     0.000000
      g-1     :     0.000000
      g+2     :     0.000000
      g-2     :     0.000000
      g+3     :     0.000000
      g-3     :     0.000000
      g+4     :     0.000000
      g-4     :     0.000000


                      *****************************
                      * MAYER POPULATION ANALYSIS *
                      *****************************

  NA   - Mulliken gross atomic population
  ZA   - Total nuclear charge
  QA   - Mulliken gross atomic charge
  VA   - Mayer's total valence
  BVA  - Mayer's bonded valence
  FA   - Mayer's free valence

  ATOM       NA         ZA         QA         VA         BVA        FA
  0 Ne     2.0000    10.0000     8.0000     0.0000     0.0000     0.0000

  Mayer bond orders larger than 0.100000


--------------------------
ATOM BASIS FOR ELEMENT Ne
--------------------------
 NewGTO Ne
 S 24
    1      99920.000000000000         0.000086660096
    2      14960.000000000000         0.000674134932
    3       3399.000000000000         0.003545002526
    4        958.900000000000         0.014779577047
    5        311.200000000000         0.051353160529
    6        111.700000000000         0.144847311862
    7         43.320000000000         0.306899675779
    8         17.800000000000         0.403176019259
    9          7.503000000000         0.220322209307
   10      99920.000000000000        -0.000000247704
   11      14960.000000000000        -0.000001956862
   12       3399.000000000000        -0.000010205408
   13        958.900000000000        -0.000043348213
   14        311.200000000000        -0.000151508198
   15        111.700000000000        -0.000458463090
   16         43.320000000000        -0.001066527057
   17         17.800000000000        -0.001961580967
   18          7.503000000000        -0.001415480175
   19          2.337000000000         0.011377201034
   20          0.900100000000        -0.001760259642
   21          0.330100000000         0.000347615553
   22         20.180000000000         0.002139705431
   23         54.042000000000        -0.001866453045
   24        144.725000000000         0.000239427536
 S 24
    1      99920.000000000000         0.000008228673
    2      14960.000000000000         0.000064011421
    3       3399.000000000000         0.000336610133
    4        958.900000000000         0.001403371468
    5        311.200000000000         0.004876158502
    6        111.700000000000         0.013753748434
    7         43.320000000000         0.029141175496
    8         17.800000000000         0.038282944102
    9          7.503000000000         0.020920348484
   10      99920.000000000000         0.000019850846
   11      14960.000000000000         0.000156821681
   12       3399.000000000000         0.000817854845
   13        958.900000000000         0.003473898007
   14        311.200000000000         0.012141769804
   15        111.700000000000         0.036740937861
   16         43.320000000000         0.085470794013
   17         17.800000000000         0.157199840055
   18          7.503000000000         0.113435672967
   19          2.337000000000        -0.761349011479
   20          0.900100000000        -0.426188575533
   21          0.330100000000         0.017462538271
   22         20.180000000000         0.043720045484
   23         54.042000000000         0.004973092363
   24        144.725000000000         0.001428995334
 S 24
    1      99920.000000000000         0.000008530219
    2      14960.000000000000         0.000066357172
    3       3399.000000000000         0.000348945486
    4        958.900000000000         0.001454799160
    5        311.200000000000         0.005054849307
    6        111.700000000000         0.014257765763
    7         43.320000000000         0.030209077641
    8         17.800000000000         0.039685853814
    9          7.503000000000         0.021686991718
   10      99920.000000000000        -0.000023094247
   11      14960.000000000000        -0.000182444555
   12       3399.000000000000        -0.000951482995
   13        958.900000000000        -0.004041493303
   14        311.200000000000        -0.014125596450
   15        111.700000000000        -0.042743987886
   16         43.320000000000        -0.099435746516
   17         17.800000000000        -0.182884500238
   18          7.503000000000        -0.131969767606
   19          2.337000000000         0.906613130446
   20          0.900100000000         0.096548556232
   21          0.330100000000        -1.241444905108
   22         20.180000000000         0.016216049637
   23         54.042000000000        -0.000935141166
   24        144.725000000000         0.001256416333
 S 24
    1      99920.000000000000        -0.000080816944
    2      14960.000000000000        -0.000628680645
    3       3399.000000000000        -0.003305976843
    4        958.900000000000        -0.013783047855
    5        311.200000000000        -0.047890617359
    6        111.700000000000        -0.135080822999
    7         43.320000000000        -0.286206628550
    8         17.800000000000        -0.375991433981
    9          7.503000000000        -0.205466742708
   10      99920.000000000000         0.000100776599
   11      14960.000000000000         0.000796135135
   12       3399.000000000000         0.004151995894
   13        958.900000000000         0.017635904888
   14        311.200000000000         0.061640006999
   15        111.700000000000         0.186522368926
   16         43.320000000000         0.433908765037
   17         17.800000000000         0.798054929166
   18          7.503000000000         0.575877799386
   19          2.337000000000        -2.823952525265
   20          0.900100000000         3.973077338372
   21          0.330100000000        -1.984423677038
   22         20.180000000000        -0.314254113632
   23         54.042000000000        -0.008932915642
   24        144.725000000000        -0.015796805765
 S 24
    1      99920.000000000000        -0.001188256666
    2      14960.000000000000        -0.009243531508
    3       3399.000000000000        -0.048607987809
    4        958.900000000000        -0.202653029333
    5        311.200000000000        -0.704138793269
    6        111.700000000000        -1.986101932806
    7         43.320000000000        -4.208114264660
    8         17.800000000000        -5.528225969957
    9          7.503000000000        -3.020990587409
   10      99920.000000000000         0.001128710765
   11      14960.000000000000         0.008916815042
   12       3399.000000000000         0.046502883510
   13        958.900000000000         0.197524383839
   14        311.200000000000         0.690375939286
   15        111.700000000000         2.089074319018
   16         43.320000000000         4.859833504434
   17         17.800000000000         8.938316981940
   18          7.503000000000         6.449904794337
   19          2.337000000000        -3.562898051199
   20          0.900100000000         2.293186724317
   21          0.330100000000        -0.710429268438
   22         20.180000000000        -5.274709906361
   23         54.042000000000        -0.285842013846
   24        144.725000000000        -0.220653944734
 S 24
    1      99920.000000000000         0.000666688852
    2      14960.000000000000         0.005186219092
    3       3399.000000000000         0.027272225359
    4        958.900000000000         0.113701458029
    5        311.200000000000         0.395067410109
    6        111.700000000000         1.114331654933
    7         43.320000000000         2.361024303551
    8         17.800000000000         3.101692361398
    9          7.503000000000         1.694971131742
   10      99920.000000000000        -0.000831299082
   11      14960.000000000000        -0.006567262751
   12       3399.000000000000        -0.034249522197
   13        958.900000000000        -0.145477339431
   14        311.200000000000        -0.508464083787
   15        111.700000000000        -1.538609906771
   16         43.320000000000        -3.579282894394
   17         17.800000000000        -6.583098998955
   18          7.503000000000        -4.750375476810
   19          2.337000000000         1.811320492157
   20          0.900100000000        -1.000148467555
   21          0.330100000000         0.296882232110
   22         20.180000000000         8.155854663991
   23         54.042000000000        -1.731311633540
   24        144.725000000000         0.543199599129
 S 24
    1      99920.000000000000         0.000403655549
    2      14960.000000000000         0.003140064681
    3       3399.000000000000         0.016512328173
    4        958.900000000000         0.068842045855
    5        311.200000000000         0.239198768723
    6        111.700000000000         0.674686782529
    7         43.320000000000         1.429513272628
    8         17.800000000000         1.877960507040
    9          7.503000000000         1.026242604069
   10      99920.000000000000        -0.000470360859
   11      14960.000000000000        -0.003715850787
   12       3399.000000000000        -0.019378867397
   13        958.900000000000        -0.082313150350
   14        311.200000000000        -0.287696219494
   15        111.700000000000        -0.870567396142
   16         43.320000000000        -2.025209233161
   17         17.800000000000        -3.724811161582
   18          7.503000000000        -2.687830093477
   19          2.337000000000         0.890556077443
   20          0.900100000000        -0.488256686214
   21          0.330100000000         0.145444406822
   22         20.180000000000         5.289306113744
   23         54.042000000000        -3.847158625430
   24        144.725000000000         2.749487211198
 S 24
    1      99920.000000000000         0.006074257361
    2      14960.000000000000         0.047252071800
    3       3399.000000000000         0.248479504620
    4        958.900000000000         1.035943403712
    5        311.200000000000         3.599491902910
    6        111.700000000000        10.152768025037
    7         43.320000000000        21.511488029006
    8         17.800000000000        28.259776064793
    9          7.503000000000        15.443022401396
   10      99920.000000000000        -0.002588688519
   11      14960.000000000000        -0.020450639302
   12       3399.000000000000        -0.106653966995
   13        958.900000000000        -0.453020490875
   14        311.200000000000        -1.583371332822
   15        111.700000000000        -4.791274145923
   16         43.320000000000       -11.145986723070
   17         17.800000000000       -20.499953818663
   18          7.503000000000       -14.792801674616
   19          2.337000000000        -0.446944336901
   20          0.900100000000         0.253866421524
   21          0.330100000000        -0.076627900777
   22         20.180000000000       -11.469760293237
   23         54.042000000000        -7.386351996034
   24        144.725000000000        -7.206198834287
 P 9
    1         99.680000000000         0.013273367291
    2         23.150000000000         0.092947937049
    3          7.108000000000         0.350571745692
    4          2.441000000000         0.581565839986
    5          0.833900000000         0.148052791800
    6          0.266200000000        -0.009915030193
    7         22.222000000000        -0.005455211404
    8         65.622000000000        -0.002056227644
    9        193.780000000000         0.000092323746
 P 9
    1         99.680000000000         0.008442764642
    2         23.150000000000         0.059121211615
    3          7.108000000000         0.222987481176
    4          2.441000000000         0.439576713010
    5          0.833900000000        -0.765396888332
    6          0.266200000000        -0.473384361012
    7         22.222000000000        -0.004163759441
    8         65.622000000000        -0.002529731835
    9        193.780000000000        -0.000022029344
 P 9
    1         99.680000000000         0.007639446161
    2         23.150000000000         0.053495902380
    3          7.108000000000         0.201770501639
    4          2.441000000000         0.485218261744
    5          0.833900000000        -1.580690753498
    6          0.266200000000         1.362371975071
    7         22.222000000000         0.000396655698
    8         65.622000000000        -0.002953006490
    9        193.780000000000         0.000145789992
 P 9
    1         99.680000000000         0.054733441921
    2         23.150000000000         0.383275803546
    3          7.108000000000         1.445601395751
    4          2.441000000000        -2.173338375934
    5          0.833900000000         1.428280636718
    6          0.266200000000        -0.497948493111
    7         22.222000000000        -0.346147958040
    8         65.622000000000        -0.010682755719
    9        193.780000000000        -0.013782327052
 P 9
    1         99.680000000000        -0.071870710241
    2         23.150000000000        -0.503281051807
    3          7.108000000000        -1.898225205494
    4          2.441000000000         1.200700091662
    5          0.833900000000        -0.552309401406
    6          0.266200000000         0.170891156450
    7         22.222000000000         2.147573473768
    8         65.622000000000        -0.070348819682
    9        193.780000000000         0.070596505101
 P 9
    1         99.680000000000         0.038130747646
    2         23.150000000000         0.267013957662
    3          7.108000000000         1.007096577217
    4          2.441000000000        -0.531044457396
    5          0.833900000000         0.237194917921
    6          0.266200000000        -0.073452668000
    7         22.222000000000        -1.992549879352
    8         65.622000000000         1.712517253054
    9        193.780000000000        -0.167853010107
 P 9
    1         99.680000000000        -0.017772087227
    2         23.150000000000        -0.124450624216
    3          7.108000000000        -0.469390434785
    4          2.441000000000         0.246416533806
    5          0.833900000000        -0.111072950135
    6          0.266200000000         0.034571456797
    7         22.222000000000         1.044312521064
    8         65.622000000000        -1.603735130138
    9        193.780000000000         1.598620707908
 D 5
    1          6.471000000000         0.057216166506
    2          2.213000000000         0.334346386322
    3          0.747000000000         0.737500362005
    4         23.613000000000         0.005979478873
    5         90.107000000000         0.000194363751
 D 5
    1          6.471000000000         0.051164335212
    2          2.213000000000         1.155846216810
    3          0.747000000000        -1.020452349827
    4         23.613000000000         0.021478555667
    5         90.107000000000        -0.000866161914
 D 5
    1          6.471000000000         1.361623675578
    2          2.213000000000        -1.180168559500
    3          0.747000000000         0.453044054186
    4         23.613000000000        -0.030589336060
    5         90.107000000000         0.011238538589
 D 5
    1          6.471000000000        -0.876584180487
    2          2.213000000000         0.458805008456
    3          0.747000000000        -0.155655910999
    4         23.613000000000         1.248168297690
    5         90.107000000000        -0.065316796506
 D 5
    1          6.471000000000         0.306140557499
    2          2.213000000000        -0.153719865548
    3          0.747000000000         0.052670742667
    4         23.613000000000        -0.656232094248
    5         90.107000000000         1.170268806307
 F 3
    1          4.657000000000        -0.021567649568
    2          1.524000000000         1.010818211412
    3         28.830000000000         0.003086668729
 F 3
    1          4.657000000000         1.165433359940
    2          1.524000000000        -0.579485847320
    3         28.830000000000        -0.003855678789
 F 3
    1          4.657000000000        -0.243127728865
    2          1.524000000000         0.097101019984
    3         28.830000000000         1.022628018404
 G 1
    1          2.983000000000         1.000000000000
 end
  // -----------------------------------------------
  // The basis set
  // -----------------------------------------------
  BAS[ATNO] = new BFNGauss[NSH];
  // Basis function   1 L = s
  InitBFNGauss(BAS[ATNO][  0]);
  BAS[ATNO][  0].l  = 0;
  BAS[ATNO][  0].ng = 24;
  BAS[ATNO][  0].a[  0] =     99920.000000000000;     BAS[ATNO][  0].d[  0] =         0.000086660096;
  BAS[ATNO][  0].a[  1] =     14960.000000000000;     BAS[ATNO][  0].d[  1] =         0.000674134932;
  BAS[ATNO][  0].a[  2] =      3399.000000000000;     BAS[ATNO][  0].d[  2] =         0.003545002526;
  BAS[ATNO][  0].a[  3] =       958.900000000000;     BAS[ATNO][  0].d[  3] =         0.014779577047;
  BAS[ATNO][  0].a[  4] =       311.200000000000;     BAS[ATNO][  0].d[  4] =         0.051353160529;
  BAS[ATNO][  0].a[  5] =       111.700000000000;     BAS[ATNO][  0].d[  5] =         0.144847311862;
  BAS[ATNO][  0].a[  6] =        43.320000000000;     BAS[ATNO][  0].d[  6] =         0.306899675779;
  BAS[ATNO][  0].a[  7] =        17.800000000000;     BAS[ATNO][  0].d[  7] =         0.403176019259;
  BAS[ATNO][  0].a[  8] =         7.503000000000;     BAS[ATNO][  0].d[  8] =         0.220322209307;
  BAS[ATNO][  0].a[  9] =     99920.000000000000;     BAS[ATNO][  0].d[  9] =        -0.000000247704;
  BAS[ATNO][  0].a[ 10] =     14960.000000000000;     BAS[ATNO][  0].d[ 10] =        -0.000001956862;
  BAS[ATNO][  0].a[ 11] =      3399.000000000000;     BAS[ATNO][  0].d[ 11] =        -0.000010205408;
  BAS[ATNO][  0].a[ 12] =       958.900000000000;     BAS[ATNO][  0].d[ 12] =        -0.000043348213;
  BAS[ATNO][  0].a[ 13] =       311.200000000000;     BAS[ATNO][  0].d[ 13] =        -0.000151508198;
  BAS[ATNO][  0].a[ 14] =       111.700000000000;     BAS[ATNO][  0].d[ 14] =        -0.000458463090;
  BAS[ATNO][  0].a[ 15] =        43.320000000000;     BAS[ATNO][  0].d[ 15] =        -0.001066527057;
  BAS[ATNO][  0].a[ 16] =        17.800000000000;     BAS[ATNO][  0].d[ 16] =        -0.001961580967;
  BAS[ATNO][  0].a[ 17] =         7.503000000000;     BAS[ATNO][  0].d[ 17] =        -0.001415480175;
  BAS[ATNO][  0].a[ 18] =         2.337000000000;     BAS[ATNO][  0].d[ 18] =         0.011377201034;
  BAS[ATNO][  0].a[ 19] =         0.900100000000;     BAS[ATNO][  0].d[ 19] =        -0.001760259642;
  BAS[ATNO][  0].a[ 20] =         0.330100000000;     BAS[ATNO][  0].d[ 20] =         0.000347615553;
  BAS[ATNO][  0].a[ 21] =        20.180000000000;     BAS[ATNO][  0].d[ 21] =         0.002139705431;
  BAS[ATNO][  0].a[ 22] =        54.042000000000;     BAS[ATNO][  0].d[ 22] =        -0.001866453045;
  BAS[ATNO][  0].a[ 23] =       144.725000000000;     BAS[ATNO][  0].d[ 23] =         0.000239427536;

  // Basis function   2 L = s
  InitBFNGauss(BAS[ATNO][  1]);
  BAS[ATNO][  1].l  = 0;
  BAS[ATNO][  1].ng = 24;
  BAS[ATNO][  1].a[  0] =     99920.000000000000;     BAS[ATNO][  1].d[  0] =        -0.000008228673;
  BAS[ATNO][  1].a[  1] =     14960.000000000000;     BAS[ATNO][  1].d[  1] =        -0.000064011421;
  BAS[ATNO][  1].a[  2] =      3399.000000000000;     BAS[ATNO][  1].d[  2] =        -0.000336610133;
  BAS[ATNO][  1].a[  3] =       958.900000000000;     BAS[ATNO][  1].d[  3] =        -0.001403371468;
  BAS[ATNO][  1].a[  4] =       311.200000000000;     BAS[ATNO][  1].d[  4] =        -0.004876158502;
  BAS[ATNO][  1].a[  5] =       111.700000000000;     BAS[ATNO][  1].d[  5] =        -0.013753748434;
  BAS[ATNO][  1].a[  6] =        43.320000000000;     BAS[ATNO][  1].d[  6] =        -0.029141175496;
  BAS[ATNO][  1].a[  7] =        17.800000000000;     BAS[ATNO][  1].d[  7] =        -0.038282944102;
  BAS[ATNO][  1].a[  8] =         7.503000000000;     BAS[ATNO][  1].d[  8] =        -0.020920348484;
  BAS[ATNO][  1].a[  9] =     99920.000000000000;     BAS[ATNO][  1].d[  9] =        -0.000019850846;
  BAS[ATNO][  1].a[ 10] =     14960.000000000000;     BAS[ATNO][  1].d[ 10] =        -0.000156821681;
  BAS[ATNO][  1].a[ 11] =      3399.000000000000;     BAS[ATNO][  1].d[ 11] =        -0.000817854845;
  BAS[ATNO][  1].a[ 12] =       958.900000000000;     BAS[ATNO][  1].d[ 12] =        -0.003473898007;
  BAS[ATNO][  1].a[ 13] =       311.200000000000;     BAS[ATNO][  1].d[ 13] =        -0.012141769804;
  BAS[ATNO][  1].a[ 14] =       111.700000000000;     BAS[ATNO][  1].d[ 14] =        -0.036740937861;
  BAS[ATNO][  1].a[ 15] =        43.320000000000;     BAS[ATNO][  1].d[ 15] =        -0.085470794013;
  BAS[ATNO][  1].a[ 16] =        17.800000000000;     BAS[ATNO][  1].d[ 16] =        -0.157199840055;
  BAS[ATNO][  1].a[ 17] =         7.503000000000;     BAS[ATNO][  1].d[ 17] =        -0.113435672967;
  BAS[ATNO][  1].a[ 18] =         2.337000000000;     BAS[ATNO][  1].d[ 18] =         0.761349011479;
  BAS[ATNO][  1].a[ 19] =         0.900100000000;     BAS[ATNO][  1].d[ 19] =         0.426188575533;
  BAS[ATNO][  1].a[ 20] =         0.330100000000;     BAS[ATNO][  1].d[ 20] =        -0.017462538271;
  BAS[ATNO][  1].a[ 21] =        20.180000000000;     BAS[ATNO][  1].d[ 21] =        -0.043720045484;
  BAS[ATNO][  1].a[ 22] =        54.042000000000;     BAS[ATNO][  1].d[ 22] =        -0.004973092363;
  BAS[ATNO][  1].a[ 23] =       144.725000000000;     BAS[ATNO][  1].d[ 23] =        -0.001428995334;

  // Basis function   3 L = s
  InitBFNGauss(BAS[ATNO][  2]);
  BAS[ATNO][  2].l  = 0;
  BAS[ATNO][  2].ng = 24;
  BAS[ATNO][  2].a[  0] =     99920.000000000000;     BAS[ATNO][  2].d[  0] =        -0.000008530219;
  BAS[ATNO][  2].a[  1] =     14960.000000000000;     BAS[ATNO][  2].d[  1] =        -0.000066357172;
  BAS[ATNO][  2].a[  2] =      3399.000000000000;     BAS[ATNO][  2].d[  2] =        -0.000348945486;
  BAS[ATNO][  2].a[  3] =       958.900000000000;     BAS[ATNO][  2].d[  3] =        -0.001454799160;
  BAS[ATNO][  2].a[  4] =       311.200000000000;     BAS[ATNO][  2].d[  4] =        -0.005054849307;
  BAS[ATNO][  2].a[  5] =       111.700000000000;     BAS[ATNO][  2].d[  5] =        -0.014257765763;
  BAS[ATNO][  2].a[  6] =        43.320000000000;     BAS[ATNO][  2].d[  6] =        -0.030209077641;
  BAS[ATNO][  2].a[  7] =        17.800000000000;     BAS[ATNO][  2].d[  7] =        -0.039685853814;
  BAS[ATNO][  2].a[  8] =         7.503000000000;     BAS[ATNO][  2].d[  8] =        -0.021686991718;
  BAS[ATNO][  2].a[  9] =     99920.000000000000;     BAS[ATNO][  2].d[  9] =         0.000023094247;
  BAS[ATNO][  2].a[ 10] =     14960.000000000000;     BAS[ATNO][  2].d[ 10] =         0.000182444555;
  BAS[ATNO][  2].a[ 11] =      3399.000000000000;     BAS[ATNO][  2].d[ 11] =         0.000951482995;
  BAS[ATNO][  2].a[ 12] =       958.900000000000;     BAS[ATNO][  2].d[ 12] =         0.004041493303;
  BAS[ATNO][  2].a[ 13] =       311.200000000000;     BAS[ATNO][  2].d[ 13] =         0.014125596450;
  BAS[ATNO][  2].a[ 14] =       111.700000000000;     BAS[ATNO][  2].d[ 14] =         0.042743987886;
  BAS[ATNO][  2].a[ 15] =        43.320000000000;     BAS[ATNO][  2].d[ 15] =         0.099435746516;
  BAS[ATNO][  2].a[ 16] =        17.800000000000;     BAS[ATNO][  2].d[ 16] =         0.182884500238;
  BAS[ATNO][  2].a[ 17] =         7.503000000000;     BAS[ATNO][  2].d[ 17] =         0.131969767606;
  BAS[ATNO][  2].a[ 18] =         2.337000000000;     BAS[ATNO][  2].d[ 18] =        -0.906613130446;
  BAS[ATNO][  2].a[ 19] =         0.900100000000;     BAS[ATNO][  2].d[ 19] =        -0.096548556232;
  BAS[ATNO][  2].a[ 20] =         0.330100000000;     BAS[ATNO][  2].d[ 20] =         1.241444905108;
  BAS[ATNO][  2].a[ 21] =        20.180000000000;     BAS[ATNO][  2].d[ 21] =        -0.016216049637;
  BAS[ATNO][  2].a[ 22] =        54.042000000000;     BAS[ATNO][  2].d[ 22] =         0.000935141166;
  BAS[ATNO][  2].a[ 23] =       144.725000000000;     BAS[ATNO][  2].d[ 23] =        -0.001256416333;

  // Basis function   4 L = s
  InitBFNGauss(BAS[ATNO][  3]);
  BAS[ATNO][  3].l  = 0;
  BAS[ATNO][  3].ng = 24;
  BAS[ATNO][  3].a[  0] =     99920.000000000000;     BAS[ATNO][  3].d[  0] =        -0.000080816944;
  BAS[ATNO][  3].a[  1] =     14960.000000000000;     BAS[ATNO][  3].d[  1] =        -0.000628680645;
  BAS[ATNO][  3].a[  2] =      3399.000000000000;     BAS[ATNO][  3].d[  2] =        -0.003305976843;
  BAS[ATNO][  3].a[  3] =       958.900000000000;     BAS[ATNO][  3].d[  3] =        -0.013783047855;
  BAS[ATNO][  3].a[  4] =       311.200000000000;     BAS[ATNO][  3].d[  4] =        -0.047890617359;
  BAS[ATNO][  3].a[  5] =       111.700000000000;     BAS[ATNO][  3].d[  5] =        -0.135080822999;
  BAS[ATNO][  3].a[  6] =        43.320000000000;     BAS[ATNO][  3].d[  6] =        -0.286206628550;
  BAS[ATNO][  3].a[  7] =        17.800000000000;     BAS[ATNO][  3].d[  7] =        -0.375991433981;
  BAS[ATNO][  3].a[  8] =         7.503000000000;     BAS[ATNO][  3].d[  8] =        -0.205466742708;
  BAS[ATNO][  3].a[  9] =     99920.000000000000;     BAS[ATNO][  3].d[  9] =         0.000100776599;
  BAS[ATNO][  3].a[ 10] =     14960.000000000000;     BAS[ATNO][  3].d[ 10] =         0.000796135135;
  BAS[ATNO][  3].a[ 11] =      3399.000000000000;     BAS[ATNO][  3].d[ 11] =         0.004151995894;
  BAS[ATNO][  3].a[ 12] =       958.900000000000;     BAS[ATNO][  3].d[ 12] =         0.017635904888;
  BAS[ATNO][  3].a[ 13] =       311.200000000000;     BAS[ATNO][  3].d[ 13] =         0.061640006999;
  BAS[ATNO][  3].a[ 14] =       111.700000000000;     BAS[ATNO][  3].d[ 14] =         0.186522368926;
  BAS[ATNO][  3].a[ 15] =        43.320000000000;     BAS[ATNO][  3].d[ 15] =         0.433908765037;
  BAS[ATNO][  3].a[ 16] =        17.800000000000;     BAS[ATNO][  3].d[ 16] =         0.798054929166;
  BAS[ATNO][  3].a[ 17] =         7.503000000000;     BAS[ATNO][  3].d[ 17] =         0.575877799386;
  BAS[ATNO][  3].a[ 18] =         2.337000000000;     BAS[ATNO][  3].d[ 18] =        -2.823952525265;
  BAS[ATNO][  3].a[ 19] =         0.900100000000;     BAS[ATNO][  3].d[ 19] =         3.973077338372;
  BAS[ATNO][  3].a[ 20] =         0.330100000000;     BAS[ATNO][  3].d[ 20] =        -1.984423677038;
  BAS[ATNO][  3].a[ 21] =        20.180000000000;     BAS[ATNO][  3].d[ 21] =        -0.314254113632;
  BAS[ATNO][  3].a[ 22] =        54.042000000000;     BAS[ATNO][  3].d[ 22] =        -0.008932915642;
  BAS[ATNO][  3].a[ 23] =       144.725000000000;     BAS[ATNO][  3].d[ 23] =        -0.015796805765;

  // Basis function   5 L = s
  InitBFNGauss(BAS[ATNO][  4]);
  BAS[ATNO][  4].l  = 0;
  BAS[ATNO][  4].ng = 24;
  BAS[ATNO][  4].a[  0] =     99920.000000000000;     BAS[ATNO][  4].d[  0] =        -0.001188256666;
  BAS[ATNO][  4].a[  1] =     14960.000000000000;     BAS[ATNO][  4].d[  1] =        -0.009243531508;
  BAS[ATNO][  4].a[  2] =      3399.000000000000;     BAS[ATNO][  4].d[  2] =        -0.048607987809;
  BAS[ATNO][  4].a[  3] =       958.900000000000;     BAS[ATNO][  4].d[  3] =        -0.202653029333;
  BAS[ATNO][  4].a[  4] =       311.200000000000;     BAS[ATNO][  4].d[  4] =        -0.704138793269;
  BAS[ATNO][  4].a[  5] =       111.700000000000;     BAS[ATNO][  4].d[  5] =        -1.986101932806;
  BAS[ATNO][  4].a[  6] =        43.320000000000;     BAS[ATNO][  4].d[  6] =        -4.208114264660;
  BAS[ATNO][  4].a[  7] =        17.800000000000;     BAS[ATNO][  4].d[  7] =        -5.528225969957;
  BAS[ATNO][  4].a[  8] =         7.503000000000;     BAS[ATNO][  4].d[  8] =        -3.020990587409;
  BAS[ATNO][  4].a[  9] =     99920.000000000000;     BAS[ATNO][  4].d[  9] =         0.001128710765;
  BAS[ATNO][  4].a[ 10] =     14960.000000000000;     BAS[ATNO][  4].d[ 10] =         0.008916815042;
  BAS[ATNO][  4].a[ 11] =      3399.000000000000;     BAS[ATNO][  4].d[ 11] =         0.046502883510;
  BAS[ATNO][  4].a[ 12] =       958.900000000000;     BAS[ATNO][  4].d[ 12] =         0.197524383839;
  BAS[ATNO][  4].a[ 13] =       311.200000000000;     BAS[ATNO][  4].d[ 13] =         0.690375939286;
  BAS[ATNO][  4].a[ 14] =       111.700000000000;     BAS[ATNO][  4].d[ 14] =         2.089074319018;
  BAS[ATNO][  4].a[ 15] =        43.320000000000;     BAS[ATNO][  4].d[ 15] =         4.859833504434;
  BAS[ATNO][  4].a[ 16] =        17.800000000000;     BAS[ATNO][  4].d[ 16] =         8.938316981940;
  BAS[ATNO][  4].a[ 17] =         7.503000000000;     BAS[ATNO][  4].d[ 17] =         6.449904794337;
  BAS[ATNO][  4].a[ 18] =         2.337000000000;     BAS[ATNO][  4].d[ 18] =        -3.562898051199;
  BAS[ATNO][  4].a[ 19] =         0.900100000000;     BAS[ATNO][  4].d[ 19] =         2.293186724317;
  BAS[ATNO][  4].a[ 20] =         0.330100000000;     BAS[ATNO][  4].d[ 20] =        -0.710429268438;
  BAS[ATNO][  4].a[ 21] =        20.180000000000;     BAS[ATNO][  4].d[ 21] =        -5.274709906361;
  BAS[ATNO][  4].a[ 22] =        54.042000000000;     BAS[ATNO][  4].d[ 22] =        -0.285842013846;
  BAS[ATNO][  4].a[ 23] =       144.725000000000;     BAS[ATNO][  4].d[ 23] =        -0.220653944734;

  // Basis function   6 L = s
  InitBFNGauss(BAS[ATNO][  5]);
  BAS[ATNO][  5].l  = 0;
  BAS[ATNO][  5].ng = 24;
  BAS[ATNO][  5].a[  0] =     99920.000000000000;     BAS[ATNO][  5].d[  0] =         0.000666688852;
  BAS[ATNO][  5].a[  1] =     14960.000000000000;     BAS[ATNO][  5].d[  1] =         0.005186219092;
  BAS[ATNO][  5].a[  2] =      3399.000000000000;     BAS[ATNO][  5].d[  2] =         0.027272225359;
  BAS[ATNO][  5].a[  3] =       958.900000000000;     BAS[ATNO][  5].d[  3] =         0.113701458029;
  BAS[ATNO][  5].a[  4] =       311.200000000000;     BAS[ATNO][  5].d[  4] =         0.395067410109;
  BAS[ATNO][  5].a[  5] =       111.700000000000;     BAS[ATNO][  5].d[  5] =         1.114331654933;
  BAS[ATNO][  5].a[  6] =        43.320000000000;     BAS[ATNO][  5].d[  6] =         2.361024303551;
  BAS[ATNO][  5].a[  7] =        17.800000000000;     BAS[ATNO][  5].d[  7] =         3.101692361398;
  BAS[ATNO][  5].a[  8] =         7.503000000000;     BAS[ATNO][  5].d[  8] =         1.694971131742;
  BAS[ATNO][  5].a[  9] =     99920.000000000000;     BAS[ATNO][  5].d[  9] =        -0.000831299082;
  BAS[ATNO][  5].a[ 10] =     14960.000000000000;     BAS[ATNO][  5].d[ 10] =        -0.006567262751;
  BAS[ATNO][  5].a[ 11] =      3399.000000000000;     BAS[ATNO][  5].d[ 11] =        -0.034249522197;
  BAS[ATNO][  5].a[ 12] =       958.900000000000;     BAS[ATNO][  5].d[ 12] =        -0.145477339431;
  BAS[ATNO][  5].a[ 13] =       311.200000000000;     BAS[ATNO][  5].d[ 13] =        -0.508464083787;
  BAS[ATNO][  5].a[ 14] =       111.700000000000;     BAS[ATNO][  5].d[ 14] =        -1.538609906771;
  BAS[ATNO][  5].a[ 15] =        43.320000000000;     BAS[ATNO][  5].d[ 15] =        -3.579282894394;
  BAS[ATNO][  5].a[ 16] =        17.800000000000;     BAS[ATNO][  5].d[ 16] =        -6.583098998955;
  BAS[ATNO][  5].a[ 17] =         7.503000000000;     BAS[ATNO][  5].d[ 17] =        -4.750375476810;
  BAS[ATNO][  5].a[ 18] =         2.337000000000;     BAS[ATNO][  5].d[ 18] =         1.811320492157;
  BAS[ATNO][  5].a[ 19] =         0.900100000000;     BAS[ATNO][  5].d[ 19] =        -1.000148467555;
  BAS[ATNO][  5].a[ 20] =         0.330100000000;     BAS[ATNO][  5].d[ 20] =         0.296882232110;
  BAS[ATNO][  5].a[ 21] =        20.180000000000;     BAS[ATNO][  5].d[ 21] =         8.155854663991;
  BAS[ATNO][  5].a[ 22] =        54.042000000000;     BAS[ATNO][  5].d[ 22] =        -1.731311633540;
  BAS[ATNO][  5].a[ 23] =       144.725000000000;     BAS[ATNO][  5].d[ 23] =         0.543199599129;

  // Basis function   7 L = s
  InitBFNGauss(BAS[ATNO][  6]);
  BAS[ATNO][  6].l  = 0;
  BAS[ATNO][  6].ng = 24;
  BAS[ATNO][  6].a[  0] =     99920.000000000000;     BAS[ATNO][  6].d[  0] =         0.000403655549;
  BAS[ATNO][  6].a[  1] =     14960.000000000000;     BAS[ATNO][  6].d[  1] =         0.003140064681;
  BAS[ATNO][  6].a[  2] =      3399.000000000000;     BAS[ATNO][  6].d[  2] =         0.016512328173;
  BAS[ATNO][  6].a[  3] =       958.900000000000;     BAS[ATNO][  6].d[  3] =         0.068842045855;
  BAS[ATNO][  6].a[  4] =       311.200000000000;     BAS[ATNO][  6].d[  4] =         0.239198768723;
  BAS[ATNO][  6].a[  5] =       111.700000000000;     BAS[ATNO][  6].d[  5] =         0.674686782529;
  BAS[ATNO][  6].a[  6] =        43.320000000000;     BAS[ATNO][  6].d[  6] =         1.429513272628;
  BAS[ATNO][  6].a[  7] =        17.800000000000;     BAS[ATNO][  6].d[  7] =         1.877960507040;
  BAS[ATNO][  6].a[  8] =         7.503000000000;     BAS[ATNO][  6].d[  8] =         1.026242604069;
  BAS[ATNO][  6].a[  9] =     99920.000000000000;     BAS[ATNO][  6].d[  9] =        -0.000470360859;
  BAS[ATNO][  6].a[ 10] =     14960.000000000000;     BAS[ATNO][  6].d[ 10] =        -0.003715850787;
  BAS[ATNO][  6].a[ 11] =      3399.000000000000;     BAS[ATNO][  6].d[ 11] =        -0.019378867397;
  BAS[ATNO][  6].a[ 12] =       958.900000000000;     BAS[ATNO][  6].d[ 12] =        -0.082313150350;
  BAS[ATNO][  6].a[ 13] =       311.200000000000;     BAS[ATNO][  6].d[ 13] =        -0.287696219494;
  BAS[ATNO][  6].a[ 14] =       111.700000000000;     BAS[ATNO][  6].d[ 14] =        -0.870567396142;
  BAS[ATNO][  6].a[ 15] =        43.320000000000;     BAS[ATNO][  6].d[ 15] =        -2.025209233161;
  BAS[ATNO][  6].a[ 16] =        17.800000000000;     BAS[ATNO][  6].d[ 16] =        -3.724811161582;
  BAS[ATNO][  6].a[ 17] =         7.503000000000;     BAS[ATNO][  6].d[ 17] =        -2.687830093477;
  BAS[ATNO][  6].a[ 18] =         2.337000000000;     BAS[ATNO][  6].d[ 18] =         0.890556077443;
  BAS[ATNO][  6].a[ 19] =         0.900100000000;     BAS[ATNO][  6].d[ 19] =        -0.488256686214;
  BAS[ATNO][  6].a[ 20] =         0.330100000000;     BAS[ATNO][  6].d[ 20] =         0.145444406822;
  BAS[ATNO][  6].a[ 21] =        20.180000000000;     BAS[ATNO][  6].d[ 21] =         5.289306113744;
  BAS[ATNO][  6].a[ 22] =        54.042000000000;     BAS[ATNO][  6].d[ 22] =        -3.847158625430;
  BAS[ATNO][  6].a[ 23] =       144.725000000000;     BAS[ATNO][  6].d[ 23] =         2.749487211198;

  // Basis function   8 L = s
  InitBFNGauss(BAS[ATNO][  7]);
  BAS[ATNO][  7].l  = 0;
  BAS[ATNO][  7].ng = 24;
  BAS[ATNO][  7].a[  0] =     99920.000000000000;     BAS[ATNO][  7].d[  0] =         0.006074257361;
  BAS[ATNO][  7].a[  1] =     14960.000000000000;     BAS[ATNO][  7].d[  1] =         0.047252071800;
  BAS[ATNO][  7].a[  2] =      3399.000000000000;     BAS[ATNO][  7].d[  2] =         0.248479504620;
  BAS[ATNO][  7].a[  3] =       958.900000000000;     BAS[ATNO][  7].d[  3] =         1.035943403712;
  BAS[ATNO][  7].a[  4] =       311.200000000000;     BAS[ATNO][  7].d[  4] =         3.599491902910;
  BAS[ATNO][  7].a[  5] =       111.700000000000;     BAS[ATNO][  7].d[  5] =        10.152768025037;
  BAS[ATNO][  7].a[  6] =        43.320000000000;     BAS[ATNO][  7].d[  6] =        21.511488029006;
  BAS[ATNO][  7].a[  7] =        17.800000000000;     BAS[ATNO][  7].d[  7] =        28.259776064793;
  BAS[ATNO][  7].a[  8] =         7.503000000000;     BAS[ATNO][  7].d[  8] =        15.443022401396;
  BAS[ATNO][  7].a[  9] =     99920.000000000000;     BAS[ATNO][  7].d[  9] =        -0.002588688519;
  BAS[ATNO][  7].a[ 10] =     14960.000000000000;     BAS[ATNO][  7].d[ 10] =        -0.020450639302;
  BAS[ATNO][  7].a[ 11] =      3399.000000000000;     BAS[ATNO][  7].d[ 11] =        -0.106653966995;
  BAS[ATNO][  7].a[ 12] =       958.900000000000;     BAS[ATNO][  7].d[ 12] =        -0.453020490875;
  BAS[ATNO][  7].a[ 13] =       311.200000000000;     BAS[ATNO][  7].d[ 13] =        -1.583371332822;
  BAS[ATNO][  7].a[ 14] =       111.700000000000;     BAS[ATNO][  7].d[ 14] =        -4.791274145923;
  BAS[ATNO][  7].a[ 15] =        43.320000000000;     BAS[ATNO][  7].d[ 15] =       -11.145986723070;
  BAS[ATNO][  7].a[ 16] =        17.800000000000;     BAS[ATNO][  7].d[ 16] =       -20.499953818663;
  BAS[ATNO][  7].a[ 17] =         7.503000000000;     BAS[ATNO][  7].d[ 17] =       -14.792801674616;
  BAS[ATNO][  7].a[ 18] =         2.337000000000;     BAS[ATNO][  7].d[ 18] =        -0.446944336901;
  BAS[ATNO][  7].a[ 19] =         0.900100000000;     BAS[ATNO][  7].d[ 19] =         0.253866421524;
  BAS[ATNO][  7].a[ 20] =         0.330100000000;     BAS[ATNO][  7].d[ 20] =        -0.076627900777;
  BAS[ATNO][  7].a[ 21] =        20.180000000000;     BAS[ATNO][  7].d[ 21] =       -11.469760293237;
  BAS[ATNO][  7].a[ 22] =        54.042000000000;     BAS[ATNO][  7].d[ 22] =        -7.386351996034;
  BAS[ATNO][  7].a[ 23] =       144.725000000000;     BAS[ATNO][  7].d[ 23] =        -7.206198834287;

  // Basis function   9 L = p
  InitBFNGauss(BAS[ATNO][  8]);
  BAS[ATNO][  8].l  = 1;
  BAS[ATNO][  8].ng = 9;
  BAS[ATNO][  8].a[  0] =        99.680000000000;     BAS[ATNO][  8].d[  0] =         0.013273367291;
  BAS[ATNO][  8].a[  1] =        23.150000000000;     BAS[ATNO][  8].d[  1] =         0.092947937049;
  BAS[ATNO][  8].a[  2] =         7.108000000000;     BAS[ATNO][  8].d[  2] =         0.350571745692;
  BAS[ATNO][  8].a[  3] =         2.441000000000;     BAS[ATNO][  8].d[  3] =         0.581565839986;
  BAS[ATNO][  8].a[  4] =         0.833900000000;     BAS[ATNO][  8].d[  4] =         0.148052791800;
  BAS[ATNO][  8].a[  5] =         0.266200000000;     BAS[ATNO][  8].d[  5] =        -0.009915030193;
  BAS[ATNO][  8].a[  6] =        22.222000000000;     BAS[ATNO][  8].d[  6] =        -0.005455211404;
  BAS[ATNO][  8].a[  7] =        65.622000000000;     BAS[ATNO][  8].d[  7] =        -0.002056227644;
  BAS[ATNO][  8].a[  8] =       193.780000000000;     BAS[ATNO][  8].d[  8] =         0.000092323746;

  // Basis function  10 L = p
  InitBFNGauss(BAS[ATNO][  9]);
  BAS[ATNO][  9].l  = 1;
  BAS[ATNO][  9].ng = 9;
  BAS[ATNO][  9].a[  0] =        99.680000000000;     BAS[ATNO][  9].d[  0] =        -0.008442764642;
  BAS[ATNO][  9].a[  1] =        23.150000000000;     BAS[ATNO][  9].d[  1] =        -0.059121211615;
  BAS[ATNO][  9].a[  2] =         7.108000000000;     BAS[ATNO][  9].d[  2] =        -0.222987481176;
  BAS[ATNO][  9].a[  3] =         2.441000000000;     BAS[ATNO][  9].d[  3] =        -0.439576713010;
  BAS[ATNO][  9].a[  4] =         0.833900000000;     BAS[ATNO][  9].d[  4] =         0.765396888332;
  BAS[ATNO][  9].a[  5] =         0.266200000000;     BAS[ATNO][  9].d[  5] =         0.473384361012;
  BAS[ATNO][  9].a[  6] =        22.222000000000;     BAS[ATNO][  9].d[  6] =         0.004163759441;
  BAS[ATNO][  9].a[  7] =        65.622000000000;     BAS[ATNO][  9].d[  7] =         0.002529731835;
  BAS[ATNO][  9].a[  8] =       193.780000000000;     BAS[ATNO][  9].d[  8] =         0.000022029344;

  // Basis function  11 L = p
  InitBFNGauss(BAS[ATNO][ 10]);
  BAS[ATNO][ 10].l  = 1;
  BAS[ATNO][ 10].ng = 9;
  BAS[ATNO][ 10].a[  0] =        99.680000000000;     BAS[ATNO][ 10].d[  0] =        -0.007639446161;
  BAS[ATNO][ 10].a[  1] =        23.150000000000;     BAS[ATNO][ 10].d[  1] =        -0.053495902380;
  BAS[ATNO][ 10].a[  2] =         7.108000000000;     BAS[ATNO][ 10].d[  2] =        -0.201770501639;
  BAS[ATNO][ 10].a[  3] =         2.441000000000;     BAS[ATNO][ 10].d[  3] =        -0.485218261744;
  BAS[ATNO][ 10].a[  4] =         0.833900000000;     BAS[ATNO][ 10].d[  4] =         1.580690753498;
  BAS[ATNO][ 10].a[  5] =         0.266200000000;     BAS[ATNO][ 10].d[  5] =        -1.362371975071;
  BAS[ATNO][ 10].a[  6] =        22.222000000000;     BAS[ATNO][ 10].d[  6] =        -0.000396655698;
  BAS[ATNO][ 10].a[  7] =        65.622000000000;     BAS[ATNO][ 10].d[  7] =         0.002953006490;
  BAS[ATNO][ 10].a[  8] =       193.780000000000;     BAS[ATNO][ 10].d[  8] =        -0.000145789992;

  // Basis function  12 L = p
  InitBFNGauss(BAS[ATNO][ 11]);
  BAS[ATNO][ 11].l  = 1;
  BAS[ATNO][ 11].ng = 9;
  BAS[ATNO][ 11].a[  0] =        99.680000000000;     BAS[ATNO][ 11].d[  0] =        -0.054733441921;
  BAS[ATNO][ 11].a[  1] =        23.150000000000;     BAS[ATNO][ 11].d[  1] =        -0.383275803546;
  BAS[ATNO][ 11].a[  2] =         7.108000000000;     BAS[ATNO][ 11].d[  2] =        -1.445601395751;
  BAS[ATNO][ 11].a[  3] =         2.441000000000;     BAS[ATNO][ 11].d[  3] =         2.173338375934;
  BAS[ATNO][ 11].a[  4] =         0.833900000000;     BAS[ATNO][ 11].d[  4] =        -1.428280636718;
  BAS[ATNO][ 11].a[  5] =         0.266200000000;     BAS[ATNO][ 11].d[  5] =         0.497948493111;
  BAS[ATNO][ 11].a[  6] =        22.222000000000;     BAS[ATNO][ 11].d[  6] =         0.346147958040;
  BAS[ATNO][ 11].a[  7] =        65.622000000000;     BAS[ATNO][ 11].d[  7] =         0.010682755719;
  BAS[ATNO][ 11].a[  8] =       193.780000000000;     BAS[ATNO][ 11].d[  8] =         0.013782327052;

  // Basis function  13 L = p
  InitBFNGauss(BAS[ATNO][ 12]);
  BAS[ATNO][ 12].l  = 1;
  BAS[ATNO][ 12].ng = 9;
  BAS[ATNO][ 12].a[  0] =        99.680000000000;     BAS[ATNO][ 12].d[  0] =        -0.071870710241;
  BAS[ATNO][ 12].a[  1] =        23.150000000000;     BAS[ATNO][ 12].d[  1] =        -0.503281051807;
  BAS[ATNO][ 12].a[  2] =         7.108000000000;     BAS[ATNO][ 12].d[  2] =        -1.898225205494;
  BAS[ATNO][ 12].a[  3] =         2.441000000000;     BAS[ATNO][ 12].d[  3] =         1.200700091662;
  BAS[ATNO][ 12].a[  4] =         0.833900000000;     BAS[ATNO][ 12].d[  4] =        -0.552309401406;
  BAS[ATNO][ 12].a[  5] =         0.266200000000;     BAS[ATNO][ 12].d[  5] =         0.170891156450;
  BAS[ATNO][ 12].a[  6] =        22.222000000000;     BAS[ATNO][ 12].d[  6] =         2.147573473768;
  BAS[ATNO][ 12].a[  7] =        65.622000000000;     BAS[ATNO][ 12].d[  7] =        -0.070348819682;
  BAS[ATNO][ 12].a[  8] =       193.780000000000;     BAS[ATNO][ 12].d[  8] =         0.070596505101;

  // Basis function  14 L = p
  InitBFNGauss(BAS[ATNO][ 13]);
  BAS[ATNO][ 13].l  = 1;
  BAS[ATNO][ 13].ng = 9;
  BAS[ATNO][ 13].a[  0] =        99.680000000000;     BAS[ATNO][ 13].d[  0] =        -0.038130747646;
  BAS[ATNO][ 13].a[  1] =        23.150000000000;     BAS[ATNO][ 13].d[  1] =        -0.267013957662;
  BAS[ATNO][ 13].a[  2] =         7.108000000000;     BAS[ATNO][ 13].d[  2] =        -1.007096577217;
  BAS[ATNO][ 13].a[  3] =         2.441000000000;     BAS[ATNO][ 13].d[  3] =         0.531044457396;
  BAS[ATNO][ 13].a[  4] =         0.833900000000;     BAS[ATNO][ 13].d[  4] =        -0.237194917921;
  BAS[ATNO][ 13].a[  5] =         0.266200000000;     BAS[ATNO][ 13].d[  5] =         0.073452668000;
  BAS[ATNO][ 13].a[  6] =        22.222000000000;     BAS[ATNO][ 13].d[  6] =         1.992549879352;
  BAS[ATNO][ 13].a[  7] =        65.622000000000;     BAS[ATNO][ 13].d[  7] =        -1.712517253054;
  BAS[ATNO][ 13].a[  8] =       193.780000000000;     BAS[ATNO][ 13].d[  8] =         0.167853010107;

  // Basis function  15 L = p
  InitBFNGauss(BAS[ATNO][ 14]);
  BAS[ATNO][ 14].l  = 1;
  BAS[ATNO][ 14].ng = 9;
  BAS[ATNO][ 14].a[  0] =        99.680000000000;     BAS[ATNO][ 14].d[  0] =         0.017772087227;
  BAS[ATNO][ 14].a[  1] =        23.150000000000;     BAS[ATNO][ 14].d[  1] =         0.124450624216;
  BAS[ATNO][ 14].a[  2] =         7.108000000000;     BAS[ATNO][ 14].d[  2] =         0.469390434785;
  BAS[ATNO][ 14].a[  3] =         2.441000000000;     BAS[ATNO][ 14].d[  3] =        -0.246416533806;
  BAS[ATNO][ 14].a[  4] =         0.833900000000;     BAS[ATNO][ 14].d[  4] =         0.111072950135;
  BAS[ATNO][ 14].a[  5] =         0.266200000000;     BAS[ATNO][ 14].d[  5] =        -0.034571456797;
  BAS[ATNO][ 14].a[  6] =        22.222000000000;     BAS[ATNO][ 14].d[  6] =        -1.044312521064;
  BAS[ATNO][ 14].a[  7] =        65.622000000000;     BAS[ATNO][ 14].d[  7] =         1.603735130138;
  BAS[ATNO][ 14].a[  8] =       193.780000000000;     BAS[ATNO][ 14].d[  8] =        -1.598620707908;

  // Basis function  16 L = d
  InitBFNGauss(BAS[ATNO][ 15]);
  BAS[ATNO][ 15].l  = 2;
  BAS[ATNO][ 15].ng = 5;
  BAS[ATNO][ 15].a[  0] =         6.471000000000;     BAS[ATNO][ 15].d[  0] =         0.057216166506;
  BAS[ATNO][ 15].a[  1] =         2.213000000000;     BAS[ATNO][ 15].d[  1] =         0.334346386322;
  BAS[ATNO][ 15].a[  2] =         0.747000000000;     BAS[ATNO][ 15].d[  2] =         0.737500362005;
  BAS[ATNO][ 15].a[  3] =        23.613000000000;     BAS[ATNO][ 15].d[  3] =         0.005979478873;
  BAS[ATNO][ 15].a[  4] =        90.107000000000;     BAS[ATNO][ 15].d[  4] =         0.000194363751;

  // Basis function  17 L = d
  InitBFNGauss(BAS[ATNO][ 16]);
  BAS[ATNO][ 16].l  = 2;
  BAS[ATNO][ 16].ng = 5;
  BAS[ATNO][ 16].a[  0] =         6.471000000000;     BAS[ATNO][ 16].d[  0] =         0.051164335212;
  BAS[ATNO][ 16].a[  1] =         2.213000000000;     BAS[ATNO][ 16].d[  1] =         1.155846216810;
  BAS[ATNO][ 16].a[  2] =         0.747000000000;     BAS[ATNO][ 16].d[  2] =        -1.020452349827;
  BAS[ATNO][ 16].a[  3] =        23.613000000000;     BAS[ATNO][ 16].d[  3] =         0.021478555667;
  BAS[ATNO][ 16].a[  4] =        90.107000000000;     BAS[ATNO][ 16].d[  4] =        -0.000866161914;

  // Basis function  18 L = d
  InitBFNGauss(BAS[ATNO][ 17]);
  BAS[ATNO][ 17].l  = 2;
  BAS[ATNO][ 17].ng = 5;
  BAS[ATNO][ 17].a[  0] =         6.471000000000;     BAS[ATNO][ 17].d[  0] =         1.361623675578;
  BAS[ATNO][ 17].a[  1] =         2.213000000000;     BAS[ATNO][ 17].d[  1] =        -1.180168559500;
  BAS[ATNO][ 17].a[  2] =         0.747000000000;     BAS[ATNO][ 17].d[  2] =         0.453044054186;
  BAS[ATNO][ 17].a[  3] =        23.613000000000;     BAS[ATNO][ 17].d[  3] =        -0.030589336060;
  BAS[ATNO][ 17].a[  4] =        90.107000000000;     BAS[ATNO][ 17].d[  4] =         0.011238538589;

  // Basis function  19 L = d
  InitBFNGauss(BAS[ATNO][ 18]);
  BAS[ATNO][ 18].l  = 2;
  BAS[ATNO][ 18].ng = 5;
  BAS[ATNO][ 18].a[  0] =         6.471000000000;     BAS[ATNO][ 18].d[  0] =        -0.876584180487;
  BAS[ATNO][ 18].a[  1] =         2.213000000000;     BAS[ATNO][ 18].d[  1] =         0.458805008456;
  BAS[ATNO][ 18].a[  2] =         0.747000000000;     BAS[ATNO][ 18].d[  2] =        -0.155655910999;
  BAS[ATNO][ 18].a[  3] =        23.613000000000;     BAS[ATNO][ 18].d[  3] =         1.248168297690;
  BAS[ATNO][ 18].a[  4] =        90.107000000000;     BAS[ATNO][ 18].d[  4] =        -0.065316796506;

  // Basis function  20 L = d
  InitBFNGauss(BAS[ATNO][ 19]);
  BAS[ATNO][ 19].l  = 2;
  BAS[ATNO][ 19].ng = 5;
  BAS[ATNO][ 19].a[  0] =         6.471000000000;     BAS[ATNO][ 19].d[  0] =         0.306140557499;
  BAS[ATNO][ 19].a[  1] =         2.213000000000;     BAS[ATNO][ 19].d[  1] =        -0.153719865548;
  BAS[ATNO][ 19].a[  2] =         0.747000000000;     BAS[ATNO][ 19].d[  2] =         0.052670742667;
  BAS[ATNO][ 19].a[  3] =        23.613000000000;     BAS[ATNO][ 19].d[  3] =        -0.656232094248;
  BAS[ATNO][ 19].a[  4] =        90.107000000000;     BAS[ATNO][ 19].d[  4] =         1.170268806307;

  // Basis function  21 L = f
  InitBFNGauss(BAS[ATNO][ 20]);
  BAS[ATNO][ 20].l  = 3;
  BAS[ATNO][ 20].ng = 3;
  BAS[ATNO][ 20].a[  0] =         4.657000000000;     BAS[ATNO][ 20].d[  0] =        -0.021567649568;
  BAS[ATNO][ 20].a[  1] =         1.524000000000;     BAS[ATNO][ 20].d[  1] =         1.010818211412;
  BAS[ATNO][ 20].a[  2] =        28.830000000000;     BAS[ATNO][ 20].d[  2] =         0.003086668729;

  // Basis function  22 L = f
  InitBFNGauss(BAS[ATNO][ 21]);
  BAS[ATNO][ 21].l  = 3;
  BAS[ATNO][ 21].ng = 3;
  BAS[ATNO][ 21].a[  0] =         4.657000000000;     BAS[ATNO][ 21].d[  0] =         1.165433359940;
  BAS[ATNO][ 21].a[  1] =         1.524000000000;     BAS[ATNO][ 21].d[  1] =        -0.579485847320;
  BAS[ATNO][ 21].a[  2] =        28.830000000000;     BAS[ATNO][ 21].d[  2] =        -0.003855678789;

  // Basis function  23 L = f
  InitBFNGauss(BAS[ATNO][ 22]);
  BAS[ATNO][ 22].l  = 3;
  BAS[ATNO][ 22].ng = 3;
  BAS[ATNO][ 22].a[  0] =         4.657000000000;     BAS[ATNO][ 22].d[  0] =        -0.243127728865;
  BAS[ATNO][ 22].a[  1] =         1.524000000000;     BAS[ATNO][ 22].d[  1] =         0.097101019984;
  BAS[ATNO][ 22].a[  2] =        28.830000000000;     BAS[ATNO][ 22].d[  2] =         1.022628018404;

  // Basis function  24 L = g
  InitBFNGauss(BAS[ATNO][ 23]);
  BAS[ATNO][ 23].l  = 4;
  BAS[ATNO][ 23].ng = 1;
  BAS[ATNO][ 23].a[  0] =         2.983000000000;     BAS[ATNO][ 23].d[  0] =         1.000000000000;

-------
TIMINGS
-------

Total SCF time: 0 days 0 hours 0 min 1 sec 

Total time                  ....       1.531 sec
Sum of individual times     ....       1.341 sec  ( 87.5%)

Fock matrix formation       ....       0.933 sec  ( 60.9%)
  XC integration            ....       0.022 sec  (  2.4% of F)
    Basis function eval.    ....       0.003 sec  ( 15.0% of XC)
    Density eval.           ....       0.002 sec  (  8.3% of XC)
    XC-Functional eval.     ....       0.001 sec  (  6.0% of XC)
    XC-Potential eval.      ....       0.003 sec  ( 13.3% of XC)
Diagonalization             ....       0.003 sec  (  0.2%)
Density matrix formation    ....       0.001 sec  (  0.1%)
Population analysis         ....       0.001 sec  (  0.1%)
Initial guess               ....       0.081 sec  (  5.3%)
Orbital Transformation      ....       0.000 sec  (  0.0%)
Orbital Orthonormalization  ....       0.000 sec  (  0.0%)
DIIS solution               ....       0.000 sec  (  0.0%)
SOSCF solution              ....       0.001 sec  (  0.1%)
Grid generation             ....       0.320 sec  ( 20.9%)

-------------------------   --------------------
FINAL SINGLE POINT ENERGY       -93.216303396551
-------------------------   --------------------


                            ***************************************
                            *     ORCA property calculations      *
                            ***************************************

                                    ---------------------
                                    Active property flags
                                    ---------------------
   (+) Dipole Moment


------------------------------------------------------------------------------
                       ORCA ELECTRIC PROPERTIES CALCULATION
------------------------------------------------------------------------------

Dipole Moment Calculation                       ... on
Quadrupole Moment Calculation                   ... off
Polarizability Calculation                      ... off
GBWName                                         ... Ne_cc-pcvqz_1096.287912_.gbw
Electron density file                           ... Ne_cc-pcvqz_1096.287912_.scfp
The origin for moment calculation is the CENTER OF MASS  = ( 0.000000,  0.000000  0.000000)

-------------
DIPOLE MOMENT
-------------
                                X             Y             Z
Electronic contribution:      0.00000       0.00000      -0.00000
Nuclear contribution   :      0.00000       0.00000       0.00000
                        -----------------------------------------
Total Dipole Moment    :      0.00000       0.00000      -0.00000
                        -----------------------------------------
Magnitude (a.u.)       :      0.00000
Magnitude (Debye)      :      0.00000



--------------------
Rotational spectrum 
--------------------
 
Rotational constants in cm-1:     0.000000     0.000000     0.000000 
Rotational constants in MHz :     0.000000     0.000000     0.000000 

 Dipole components along the rotational axes: 
x,y,z [a.u.] :     0.000000     0.000000    -0.000000 
x,y,z [Debye]:     0.000000     0.000000    -0.000000 

 

Timings for individual modules:

Sum of individual times         ...        2.674 sec (=   0.045 min)
GTO integral calculation        ...        0.520 sec (=   0.009 min)  19.4 %
Relativistic integrals          ...        0.358 sec (=   0.006 min)  13.4 %
SCF iterations                  ...        1.796 sec (=   0.030 min)  67.2 %
                             ****ORCA TERMINATED NORMALLY****
TOTAL RUN TIME: 0 days 0 hours 0 minutes 2 seconds 977 msec
