
                                 *****************
                                 * O   R   C   A *
                                 *****************

           --- An Ab Initio, DFT and Semiempirical electronic structure package ---

                  #######################################################
                  #                        -***-                        #
                  #          Department of theory and spectroscopy      #
                  #               Directorship: Frank Neese             #
                  #        Max Planck Institute fuer Kohlenforschung    #
                  #                Kaiser Wilhelm Platz 1               #
                  #                 D-45470 Muelheim/Ruhr               #
                  #                      Germany                        #
                  #                                                     #
                  #                  All rights reserved                #
                  #                        -***-                        #
                  #######################################################


                         Program Version 4.2.1 -  RELEASE  -


 With contributions from (in alphabetic order):
   Daniel Aravena         : Magnetic Suceptibility
   Michael Atanasov       : Ab Initio Ligand Field Theory (pilot matlab implementation)
   Alexander A. Auer      : GIAO ZORA, VPT2
   Ute Becker             : Parallelization
   Giovanni Bistoni       : ED, misc. LED, open-shell LED, HFLD
   Martin Brehm           : Molecular dynamics
   Dmytro Bykov           : SCF Hessian
   Vijay G. Chilkuri      : MRCI spin determinant printing, contributions to CSF-ICE
   Dipayan Datta          : RHF DLPNO-CCSD density
   Achintya Kumar Dutta   : EOM-CC, STEOM-CC
   Dmitry Ganyushin       : Spin-Orbit,Spin-Spin,Magnetic field MRCI
   Miquel Garcia          : C-PCM Hessian, Gaussian charge scheme
   Yang Guo               : DLPNO-NEVPT2, CIM, IAO-localization
   Andreas Hansen         : Spin unrestricted coupled pair/coupled cluster methods
   Benjamin Helmich-Paris : CASSCF linear response (MC-RPA)
   Lee Huntington         : MR-EOM, pCC
   Robert Izsak           : Overlap fitted RIJCOSX, COSX-SCS-MP3, EOM
   Christian Kollmar      : KDIIS, OOCD, Brueckner-CCSD(T), CCSD density
   Simone Kossmann        : Meta GGA functionals, TD-DFT gradient, OOMP2, MP2 Hessian
   Martin Krupicka        : AUTO-CI
   Lucas Lang             : DCDCAS
   Dagmar Lenk            : GEPOL surface, SMD
   Dimitrios Liakos       : Extrapolation schemes; Compound Job, initial MDCI parallelization
   Dimitrios Manganas     : Further ROCIS development; embedding schemes
   Dimitrios Pantazis     : SARC Basis sets
   Taras Petrenko         : DFT Hessian,TD-DFT gradient, ASA, ECA, R-Raman, ABS, FL, XAS/XES, NRVS
   Peter Pinski           : DLPNO-MP2, DLPNO-MP2 Gradient
   Christoph Reimann      : Effective Core Potentials
   Marius Retegan         : Local ZFS, SOC
   Christoph Riplinger    : Optimizer, TS searches, QM/MM, DLPNO-CCSD(T), (RO)-DLPNO pert. Triples
   Tobias Risthaus        : Range-separated hybrids, TD-DFT gradient, RPA, STAB
   Michael Roemelt        : Original ROCIS implementation
   Masaaki Saitow         : Open-shell DLPNO-CCSD energy and density
   Barbara Sandhoefer     : DKH picture change effects
   Avijit Sen             : IP-ROCIS
   Kantharuban Sivalingam : CASSCF convergence, NEVPT2, FIC-MRCI
   Bernardo de Souza      : ESD, SOC TD-DFT
   Georgi Stoychev        : AutoAux, RI-MP2 NMR
   Willem Van den Heuvel  : Paramagnetic NMR
   Boris Wezisla          : Elementary symmetry handling
   Frank Wennmohs         : Technical directorship


 We gratefully acknowledge several colleagues who have allowed us to
 interface, adapt or use parts of their codes:
   Stefan Grimme, W. Hujo, H. Kruse,             : VdW corrections, initial TS optimization,
                  C. Bannwarth                     DFT functionals, gCP, sTDA/sTD-DF
   Ed Valeev, F. Pavosevic, A. Kumar             : LibInt (2-el integral package), F12 methods
   Garnet Chan, S. Sharma, J. Yang, R. Olivares  : DMRG
   Ulf Ekstrom                                   : XCFun DFT Library
   Mihaly Kallay                                 : mrcc  (arbitrary order and MRCC methods)
   Andreas Klamt, Michael Diedenhofen            : otool_cosmo (COSMO solvation model)
   Jiri Pittner, Ondrej Demel                    : Mk-CCSD
   Frank Weinhold                                : gennbo (NPA and NBO analysis)
   Christopher J. Cramer and Donald G. Truhlar   : smd solvation model
   Lars Goerigk                                  : TD-DFT with DH, B97 family of functionals
   V. Asgeirsson, H. Jonsson                     : NEB implementation
   FAccTs GmbH                                   : IRC, NEB, NEB-TS, Multilevel, MM, QM/MM, CI optimization
   S Lehtola, MJT Oliveira, MAL Marques          : LibXC Library


 Your calculation uses the libint2 library for the computation of 2-el integrals
 For citations please refer to: http://libint.valeyev.net

 Your ORCA version has been built with support for libXC version: 4.2.3
 For citations please refer to: https://tddft.org/programs/libxc/

 This ORCA versions uses:
   CBLAS   interface :  Fast vector & matrix operations
   LAPACKE interface :  Fast linear algebra routines
   SCALAPACK package :  Parallel linear algebra routines


----- Orbital basis set information -----
Your calculation utilizes the basis: cc-pCV5Z 
             H : cc-pV5Z. Obtained from the ccRepo (grant-hill.group.shef.ac.uk/ccrepo) Feb. 2017
                 T. H. Dunning, Jr., J. Chem. Phys. 90, 1007 (1989)
            He : cc-pV5Z. Obtained from the ccRepo (grant-hill.group.shef.ac.uk/ccrepo) Feb. 2017
                 D. E. Woon, T. H. Dunning, Jr., J. Chem. Phys. 100, 2975 (1994)
  Li-Be, Na-Mg : Obtained from the ccRepo (grant-hill.group.shef.ac.uk/ccrepo) Feb. 2017
                 B. P. Prascher, D. E. Woon, K. A. Peterson, T. H. Dunning, Jr., A. K. Wilson, Theor. Chem. Acc. 128, 69 (2011)
          B-Ne : Obtained from the ccRepo (grant-hill.group.shef.ac.uk/ccrepo) Feb. 2017
                 D. E. Woon, T. H. Dunning, Jr., J. Chem. Phys. 103, 4572 (1995)
                  K. A. Peterson, T. H. Dunning, Jr., J. Chem. Phys. 117, 10548 (2002)
         Al-Ar : Obtained from the EMSL Basis Set Exchange (bse.pnl.gov) Feb. 2017
                 K. A. Peterson, T. H. Dunning, Jr., J. Chem. Phys. 117, 10548 (2002)
            Ca : Obtained from the Peterson Research Group Website (tyr0.chem.wsu.edu/~kipeters) Feb. 2017
                 J. Koput, K. A. Peterson, J. Phys. Chem. A 106, 9595 (2002)
         Ga-Kr : Obtained from the Peterson Research Group Website (tyr0.chem.wsu.edu/~kipeters) Feb. 2017
                 N. J. DeYonker, K. A. Peterson, A. K. Wilson, J. Phys. Chem. A 111, 11383 (2007)

================================================================================
                                        WARNINGS
                       Please study these warnings very carefully!
================================================================================


INFO   : the flag for use of LIBINT has been found!

================================================================================
                                       INPUT FILE
================================================================================
NAME = Ne_cc-pcv5z_548.143956_.inp
|  1> ! LDA cc-pcv5z nori grid5 finalgrid6 verytightscf
|  2> %Pal NProcs 18 End
|  3> 
|  4> % REL
|  5>   Method ZORA
|  6>   ModelPot 1, 0, 0, 0
|  7>   velit 548.143956
|  8> END
|  9> 
| 10> *xyz 8 1
| 11> Ne 0.0 0.0 0.0
| 12> **                         ****END OF INPUT****
================================================================================

                       ****************************
                       * Single Point Calculation *
                       ****************************

---------------------------------
CARTESIAN COORDINATES (ANGSTROEM)
---------------------------------
  Ne     0.000000    0.000000    0.000000

----------------------------
CARTESIAN COORDINATES (A.U.)
----------------------------
  NO LB      ZA    FRAG     MASS         X           Y           Z
   0 Ne   10.0000    0    20.179    0.000000    0.000000    0.000000

--------------------------------
INTERNAL COORDINATES (ANGSTROEM)
--------------------------------
 Ne     0   0   0     0.000000000000     0.00000000     0.00000000

---------------------------
INTERNAL COORDINATES (A.U.)
---------------------------
 Ne     0   0   0     0.000000000000     0.00000000     0.00000000

---------------------
BASIS SET INFORMATION
---------------------
There are 1 groups of distinct atoms

 Group   1 Type Ne  : 28s12p7d5f3g1h contracted to 10s9p7d5f3g1h pattern {101011111111/411111111/1111111/11111/111/1}

Atom   0Ne   basis set group =>   1


           ************************************************************
           *        Program running with 18 parallel MPI-processes    *
           *              working on a common directory               *
           ************************************************************
------------------------------------------------------------------------------
                           ORCA GTO INTEGRAL CALCULATION
------------------------------------------------------------------------------

                         BASIS SET STATISTICS AND STARTUP INFO

 # of primitive gaussian shells          ...   56
 # of primitive gaussian functions       ...  172
 # of contracted shells                  ...   35
 # of contracted basis functions         ...  145
 Highest angular momentum                ...    5
 Maximum contraction depth               ...   10
 Integral package used                   ... LIBINT
 Integral threshhold            Thresh   ...  1.000e-12
 Primitive cut-off              TCut     ...  1.000e-14


------------------------------ INTEGRAL EVALUATION ----------------------------


 * One electron integrals 
 Pre-screening matrix                    ... done
 Shell pair data                         ... done (   0.000 sec)



           ************************************************************
           *        Program running with 18 parallel MPI-processes    *
           *              working on a common directory               *
           ************************************************************
------------------------------------------------------------------------------
                          ORCA RELATIVISTIC HAMILTONIAN
------------------------------------------------------------------------------

Relativistic Method            ... ZORA(MP)
Treatment of potential         ... Van Wuellen
Nucleus model                  ... Point Nucleus
Speed of light used            ... 548.14395600000000


            *************************************************
            *         ZERO ORDER REGULAR APPROXIMATION      *
            *                     ZORA(MP)                  *
            *            Programmed by FN according to      *
            *                   C. van Wuellen              *
            *       J. Chem. Phys. (1998) vol 109, 392-399  *
            *************************************************

Terms included in model potential: +V(e,N)
Basis function cutoff value   ... 1.000000e-12
Loading the fitted atomic densities  (DKH4)  ... done
Calculating the cutoffs                      ... done
Number of fit functions                      ... 11
Setting up the integration grid ... done


           ************************************************************
           *        Program running with 18 parallel MPI-processes    *
           *              working on a common directory               *
           ************************************************************
-------------------------------------------------------------------------------
                                 ORCA SCF
-------------------------------------------------------------------------------

------------
SCF SETTINGS
------------
Hamiltonian:
 Density Functional     Method          .... DFT(GTOs)
 Exchange Functional    Exchange        .... Slater
   X-Alpha parameter    XAlpha          ....  0.666667
 Correlation Functional Correlation     .... VWN-5
 Gradients option       PostSCFGGA      .... off
   Density functional embedding theory  .... OFF

Relativistic Settings:
 Scalar relativistic method             .... ZORA
 Speed of light used       Velit        ....       548.143956
Orbital energies will be scaled


General Settings:
 Integral files         IntName         .... Ne_cc-pcv5z_548.143956_
 Hartree-Fock type      HFTyp           .... RHF
 Total Charge           Charge          ....    8
 Multiplicity           Mult            ....    1
 Number of Electrons    NEL             ....    2
 Basis Dimension        Dim             ....  145
 Nuclear Repulsion      ENuc            ....      0.0000000000 Eh

Convergence Acceleration:
 DIIS                   CNVDIIS         .... on
   Start iteration      DIISMaxIt       ....    12
   Startup error        DIISStart       ....  0.200000
   # of expansion vecs  DIISMaxEq       ....     5
   Bias factor          DIISBfac        ....   1.050
   Max. coefficient     DIISMaxC        ....  10.000
 Newton-Raphson         CNVNR           .... off
 SOSCF                  CNVSOSCF        .... on
   Start iteration      SOSCFMaxIt      ....   150
   Startup grad/error   SOSCFStart      ....  0.003300
 Level Shifting         CNVShift        .... on
   Level shift para.    LevelShift      ....    0.2500
   Turn off err/grad.   ShiftErr        ....    0.0010
 Zerner damping         CNVZerner       .... off
 Static damping         CNVDamp         .... on
   Fraction old density DampFac         ....    0.7000
   Max. Damping (<1)    DampMax         ....    0.9800
   Min. Damping (>=0)   DampMin         ....    0.0000
   Turn off err/grad.   DampErr         ....    0.1000
 Fernandez-Rico         CNVRico         .... off

SCF Procedure:
 Maximum # iterations   MaxIter         ....   125
 SCF integral mode      SCFMode         .... Direct
   Integral package                     .... LIBINT
 Reset frequency        DirectResetFreq ....    20
 Integral Threshold     Thresh          ....  1.000e-12 Eh
 Primitive CutOff       TCut            ....  1.000e-14 Eh

Convergence Tolerance:
 Convergence Check Mode ConvCheckMode   .... Total+1el-Energy
 Convergence forced     ConvForced      .... 0
 Energy Change          TolE            ....  1.000e-09 Eh
 1-El. energy change                    ....  1.000e-06 Eh
 Orbital Gradient       TolG            ....  2.000e-06
 Orbital Rotation angle TolX            ....  2.000e-06
 DIIS Error             TolErr          ....  1.000e-08


Diagonalization of the overlap matrix:
Smallest eigenvalue                        ... 2.075e-05
Time for diagonalization                   ...    0.003 sec
Threshold for overlap eigenvalues          ... 1.000e-08
Number of eigenvalues below threshold      ... 0
Time for construction of square roots      ...    0.002 sec
Total time needed                          ...    0.005 sec

-------------------
DFT GRID GENERATION
-------------------

General Integration Accuracy     IntAcc      ...  5.010
Radial Grid Type                 RadialGrid  ... Gauss-Chebyshev
Angular Grid (max. acc.)         AngularGrid ... Lebedev-434
Angular grid pruning method      GridPruning ... 3 (G Style)
Weight generation scheme         WeightScheme... Becke
Basis function cutoff            BFCut       ...    1.0000e-12
Integration weight cutoff        WCut        ...    1.0000e-14
Grids for H and He will be reduced by one unit

# of grid points (after initial pruning)     ...  10818 (   0.0 sec)
# of grid points (after weights+screening)   ...  10818 (   0.0 sec)
Grid point division into batches done        ...    0.1 sec
Reduced shell lists constructed in    0.1 sec

Total number of grid points                  ...    10818
Total number of batches                      ...      170
Average number of points per batch           ...       63
Average number of grid points per atom       ...    10818
Average number of shells per batch           ...     0.00 ( 0.00%)
Average number of basis functions per batch  ...     0.00 ( 0.00%)
Average number of large shells per batch     ...     0.00 ( -nan%)
Average number of large basis fcns per batch ...     0.00 ( -nan%)
Maximum spatial batch extension              ...  16.29, 16.29, 16.29 au
Average spatial batch extension              ...   0.85,  0.86,  0.85 au

Time for grid setup =    0.125 sec

------------------------------
INITIAL GUESS: MODEL POTENTIAL
------------------------------
Loading ZORA relativistic densities                ... done
Calculating cut-offs                               ... done
Setting up the integral package                    ... done
Initializing the effective Hamiltonian             ... done
Starting the Coulomb interaction                   ... done (   0.0 sec)
Reading the grid                                   ... done
Mapping shells                                     ... done
Starting the XC term evaluation                    ... done (   0.0 sec)
  promolecular density results
     # of electrons  =     10.000000334
     EX              =    -11.053709298
     EC              =     -0.746638772
     EX+EC           =    -11.800348070
Transforming the Hamiltonian                       ... done (   0.0 sec)
Diagonalizing the Hamiltonian                      ... done (   0.0 sec)
Back transforming the eigenvectors                 ... done (   0.0 sec)
Now organizing SCF variables                       ... done
                      ------------------
                      INITIAL GUESS DONE (   0.2 sec)
                      ------------------
--------------
SCF ITERATIONS
--------------
ITER       Energy         Delta-E        Max-DP      RMS-DP      [F,P]     Damp
               ***  Starting incremental Fock matrix formation  ***
  0    -93.2153049221   0.000000000000 0.02212955  0.00017378  0.9055171 0.7000
  1    -93.2192122914  -0.003907369260 0.01478297  0.00011643  0.6229551 0.7000
  2    -93.2218890605  -0.002676769112 0.00983632  0.00007772  0.4273577 0.7000
                      *** Initiating the SOSCF procedure ***
                      *** Re-Reading the Fockian *** 
                      *** Removing any level shift *** 
ITER      Energy       Delta-E        Grad      Rot      Max-DP    RMS-DP
  3    -93.22373551  -0.0018464485  0.002616  0.002616  0.021785  0.000173
               *** Restarting incremental Fock matrix formation ***
  4    -93.22796141  -0.0042259036  0.005962  0.000113  0.002662  0.000021
  5    -93.22796447  -0.0000030540  0.000324  0.000006  0.000138  0.000001
                  ***Gradient check signals convergence***
              ***Rediagonalizing the Fockian in SOSCF/NRSCF***

               *****************************************************
               *                     SUCCESS                       *
               *           SCF CONVERGED AFTER   6 CYCLES          *
               *****************************************************

Setting up the final grid:

General Integration Accuracy     IntAcc      ...  5.340
Radial Grid Type                 RadialGrid  ... Gauss-Chebyshev
Angular Grid (max. acc.)         AngularGrid ... Lebedev-590
Angular grid pruning method      GridPruning ... 3 (G Style)
Weight generation scheme         WeightScheme... Becke
Basis function cutoff            BFCut       ...    1.0000e-12
Integration weight cutoff        WCut        ...    1.0000e-14
Grids for H and He will be reduced by one unit

# of grid points (after initial pruning)     ...  16840 (   0.0 sec)
# of grid points (after weights+screening)   ...  16840 (   0.0 sec)
Grid point division into batches done        ...    0.2 sec
Reduced shell lists constructed in    0.2 sec

Total number of grid points                  ...    16840
Total number of batches                      ...      264
Average number of points per batch           ...       63
Average number of grid points per atom       ...    16840
Average number of shells per batch           ...     0.00 ( 0.00%)
Average number of basis functions per batch  ...     0.00 ( 0.00%)
Average number of large shells per batch     ...     0.00 ( -nan%)
Average number of large basis fcns per batch ...     0.00 ( -nan%)
Maximum spatial batch extension              ...  16.63, 16.63, 16.63 au
Average spatial batch extension              ...   0.74,  0.74,  0.69 au

Final grid set up in    0.3 sec
Final integration                            ... done (   0.0 sec)
Change in XC energy                          ...     0.000000098
Integrated number of electrons               ...     1.999999999
Previous integrated no of electrons          ...     2.000000014

----------------
TOTAL SCF ENERGY
----------------

Total Energy       :          -93.22796438 Eh           -2536.86188 eV

Components:
Nuclear Repulsion  :            0.00000000 Eh               0.00000 eV
Electronic Energy  :          -93.22796438 Eh           -2536.86188 eV
One Electron Energy:          -99.86930424 Eh           -2717.58193 eV
Two Electron Energy:            6.64133986 Eh             180.72005 eV

Virial components:
Potential Energy   :         -186.32359426 Eh           -5070.12276 eV
Kinetic Energy     :           93.09562989 Eh            2533.26088 eV
Virial Ratio       :            2.00142149


DFT components:
N(Alpha)           :        0.999999999297 electrons
N(Beta)            :        0.999999999297 electrons
N(Total)           :        1.999999998595 electrons
E(X)               :       -5.147130980953 Eh       
E(C)               :       -0.202690576517 Eh       
E(XC)              :       -5.349821557470 Eh       
DFET-embed. en.    :        0.000000000000 Eh       

---------------
SCF CONVERGENCE
---------------

  Last Energy change         ...   -9.4178e-09  Tolerance :   1.0000e-09
  Last MAX-Density change    ...    7.9405e-09  Tolerance :   1.0000e-08
  Last RMS-Density change    ...    8.3332e-11  Tolerance :   1.0000e-09
  Last Orbital Gradient      ...    5.8966e-08  Tolerance :   2.0000e-06
  Last Orbital Rotation      ...    3.7815e-10  Tolerance :   2.0000e-06

             **** THE GBW FILE WAS UPDATED (Ne_cc-pcv5z_548.143956_.gbw) ****
             **** DENSITY FILE WAS UPDATED (Ne_cc-pcv5z_548.143956_.scfp) ****
             **** ENERGY FILE WAS UPDATED (Ne_cc-pcv5z_548.143956_.en.tmp) ****
             **** THE GBW FILE WAS UPDATED (Ne_cc-pcv5z_548.143956_.gbw) ****
             **** DENSITY FILE WAS UPDATED (Ne_cc-pcv5z_548.143956_.scfp) ****
----------------
ORBITAL ENERGIES
----------------

  NO   OCC          E(Eh)            E(eV) 
   0   2.0000     -41.485463     -1128.8768 
   1   0.0000      -9.050520      -246.2772 
   2   0.0000      -8.614755      -234.4194 
   3   0.0000      -8.614755      -234.4194 
   4   0.0000      -8.614755      -234.4194 
   5   0.0000      -3.831543      -104.2616 
   6   0.0000      -3.703222      -100.7698 
   7   0.0000      -3.703222      -100.7698 
   8   0.0000      -3.703222      -100.7698 
   9   0.0000      -3.599391       -97.9444 
  10   0.0000      -3.599391       -97.9444 
  11   0.0000      -3.599391       -97.9444 
  12   0.0000      -3.599391       -97.9444 
  13   0.0000      -3.599391       -97.9444 
  14   0.0000      -2.054898       -55.9166 
  15   0.0000      -2.054898       -55.9166 
  16   0.0000      -2.054898       -55.9166 
  17   0.0000      -1.712080       -46.5881 
  18   0.0000      -1.325988       -36.0820 
  19   0.0000      -1.325988       -36.0820 
  20   0.0000      -1.325988       -36.0820 
  21   0.0000      -1.325988       -36.0820 
  22   0.0000      -1.325988       -36.0820 
  23   0.0000      -1.268252       -34.5109 
  24   0.0000      -1.268252       -34.5109 
  25   0.0000      -1.268252       -34.5109 
  26   0.0000      -1.268252       -34.5109 
  27   0.0000      -1.268252       -34.5109 
  28   0.0000      -1.268252       -34.5109 
  29   0.0000      -1.268252       -34.5109 
  30   0.0000       0.133083         3.6214 
  31   0.0000       0.133083         3.6214 
  32   0.0000       0.133083         3.6214 
  33   0.0000       3.129286        85.1522 
  34   0.0000       3.129286        85.1522 
  35   0.0000       3.129286        85.1522 
  36   0.0000       3.129286        85.1522 
  37   0.0000       3.129286        85.1522 
  38   0.0000       3.129286        85.1522 
  39   0.0000       3.129286        85.1522 
  40   0.0000       3.129286        85.1522 
  41   0.0000       3.129286        85.1522 
  42   0.0000       4.723626       128.5364 
  43   0.0000       4.723626       128.5364 
  44   0.0000       4.723626       128.5364 
  45   0.0000       4.723626       128.5364 
  46   0.0000       4.723626       128.5364 
  47   0.0000       4.723626       128.5364 
  48   0.0000       4.723626       128.5364 
  49   0.0000       4.913346       133.6990 
  50   0.0000       4.913346       133.6990 
  51   0.0000       4.913346       133.6990 
  52   0.0000       4.913346       133.6990 
  53   0.0000       4.913346       133.6990 
  54   0.0000       5.443650       148.1292 
  55   0.0000      10.609588       288.7016 
  56   0.0000      10.609588       288.7016 
  57   0.0000      10.609588       288.7016 
  58   0.0000      15.315327       416.7512 
  59   0.0000      15.315327       416.7512 
  60   0.0000      15.315327       416.7512 
  61   0.0000      15.315327       416.7512 
  62   0.0000      15.315327       416.7512 
  63   0.0000      15.315327       416.7512 
  64   0.0000      15.315327       416.7512 
  65   0.0000      15.315327       416.7512 
  66   0.0000      15.315327       416.7512 
  67   0.0000      15.315327       416.7512 
  68   0.0000      15.315327       416.7512 
  69   0.0000      20.749460       564.6215 
  70   0.0000      20.749460       564.6215 
  71   0.0000      20.749460       564.6215 
  72   0.0000      20.749460       564.6215 
  73   0.0000      20.749460       564.6215 
  74   0.0000      20.749460       564.6215 
  75   0.0000      20.749460       564.6215 
  76   0.0000      20.749460       564.6215 
  77   0.0000      20.749460       564.6215 
  78   0.0000      23.196079       631.1974 
  79   0.0000      23.196079       631.1974 
  80   0.0000      23.196079       631.1974 
  81   0.0000      23.196079       631.1974 
  82   0.0000      23.196079       631.1974 
  83   0.0000      23.196079       631.1974 
  84   0.0000      23.196079       631.1974 
  85   0.0000      24.924285       678.2243 
  86   0.0000      24.924285       678.2243 
  87   0.0000      24.924285       678.2243 
  88   0.0000      24.924285       678.2243 
  89   0.0000      24.924285       678.2243 
  90   0.0000      32.236893       877.2104 
  91   0.0000      45.697222      1243.4846 
  92   0.0000      45.697222      1243.4846 
  93   0.0000      45.697222      1243.4846 
  94   0.0000      86.873139      2363.9383 
  95   0.0000      86.873139      2363.9383 
  96   0.0000      86.873139      2363.9383 
  97   0.0000      86.873139      2363.9383 
  98   0.0000      86.873139      2363.9383 
  99   0.0000     104.974096      2856.4904 
 100   0.0000     104.974096      2856.4904 
 101   0.0000     104.974096      2856.4904 
 102   0.0000     104.974096      2856.4904 
 103   0.0000     104.974096      2856.4904 
 104   0.0000     104.974096      2856.4904 
 105   0.0000     104.974096      2856.4904 
 106   0.0000     110.781997      3014.5314 
 107   0.0000     148.225480      4033.4204 
 108   0.0000     148.225480      4033.4204 
 109   0.0000     148.225480      4033.4204 
 110   0.0000     180.695984      4916.9877 
 111   0.0000     180.695984      4916.9877 
 112   0.0000     180.695984      4916.9877 
 113   0.0000     180.695984      4916.9877 
 114   0.0000     180.695984      4916.9877 
 115   0.0000     180.695984      4916.9877 
 116   0.0000     180.695984      4916.9877 
 117   0.0000     180.695984      4916.9877 
 118   0.0000     180.695984      4916.9877 
 119   0.0000     277.002550      7537.6226 
 120   0.0000     277.002550      7537.6226 
 121   0.0000     277.002550      7537.6226 
 122   0.0000     277.002550      7537.6226 
 123   0.0000     277.002550      7537.6226 
 124   0.0000     316.185269      8603.8386 
 125   0.0000     434.822225     11832.1143 
 126   0.0000     434.822225     11832.1143 
 127   0.0000     434.822225     11832.1143 
 128   0.0000     443.981873     12081.3610 
 129   0.0000     443.981873     12081.3610 
 130   0.0000     443.981873     12081.3610 
 131   0.0000     443.981873     12081.3610 
 132   0.0000     443.981873     12081.3610 
 133   0.0000     443.981873     12081.3610 
 134   0.0000     443.981873     12081.3610 
 135   0.0000     851.604289     23173.3308 
 136   0.0000     869.014968     23647.0995 
 137   0.0000     869.014968     23647.0995 
 138   0.0000     869.014968     23647.0995 
 139   0.0000     869.014968     23647.0995 
 140   0.0000     869.014968     23647.0995 
 141   0.0000    1245.975064     33904.7052 
 142   0.0000    1245.975064     33904.7052 
 143   0.0000    1245.975064     33904.7052 
 144   0.0000    3032.315195     82513.4914 

                    ********************************
                    * MULLIKEN POPULATION ANALYSIS *
                    ********************************

-----------------------
MULLIKEN ATOMIC CHARGES
-----------------------
   0 Ne:    8.000000
Sum of atomic charges:    8.0000000

--------------------------------
MULLIKEN REDUCED ORBITAL CHARGES
--------------------------------
  0 Nes       :     2.000000  s :     2.000000
      pz      :     0.000000  p :     0.000000
      px      :     0.000000
      py      :     0.000000
      dz2     :     0.000000  d :     0.000000
      dxz     :     0.000000
      dyz     :     0.000000
      dx2y2   :     0.000000
      dxy     :     0.000000
      f0      :     0.000000  f :     0.000000
      f+1     :     0.000000
      f-1     :     0.000000
      f+2     :     0.000000
      f-2     :     0.000000
      f+3     :     0.000000
      f-3     :     0.000000
      g0      :     0.000000  g :     0.000000
      g+1     :     0.000000
      g-1     :     0.000000
      g+2     :     0.000000
      g-2     :     0.000000
      g+3     :     0.000000
      g-3     :     0.000000
      g+4     :     0.000000
      g-4     :     0.000000
      h0      :     0.000000  h :     0.000000
      h+1     :     0.000000
      h-1     :     0.000000
      h+2     :     0.000000
      h-2     :     0.000000
      h+3     :     0.000000
      h-3     :     0.000000
      h+4     :     0.000000
      h-4     :     0.000000
      h+5     :     0.000000
      h-5     :     0.000000


                     *******************************
                     * LOEWDIN POPULATION ANALYSIS *
                     *******************************

----------------------
LOEWDIN ATOMIC CHARGES
----------------------
   0 Ne:    8.000000

-------------------------------
LOEWDIN REDUCED ORBITAL CHARGES
-------------------------------
  0 Nes       :     2.000000  s :     2.000000
      pz      :     0.000000  p :     0.000000
      px      :     0.000000
      py      :     0.000000
      dz2     :     0.000000  d :     0.000000
      dxz     :     0.000000
      dyz     :     0.000000
      dx2y2   :     0.000000
      dxy     :     0.000000
      f0      :     0.000000  f :     0.000000
      f+1     :     0.000000
      f-1     :     0.000000
      f+2     :     0.000000
      f-2     :     0.000000
      f+3     :     0.000000
      f-3     :     0.000000
      g0      :     0.000000  g :     0.000000
      g+1     :     0.000000
      g-1     :     0.000000
      g+2     :     0.000000
      g-2     :     0.000000
      g+3     :     0.000000
      g-3     :     0.000000
      g+4     :     0.000000
      g-4     :     0.000000
      h0      :     0.000000  h :     0.000000
      h+1     :     0.000000
      h-1     :     0.000000
      h+2     :     0.000000
      h-2     :     0.000000
      h+3     :     0.000000
      h-3     :     0.000000
      h+4     :     0.000000
      h-4     :     0.000000
      h+5     :     0.000000
      h-5     :     0.000000


                      *****************************
                      * MAYER POPULATION ANALYSIS *
                      *****************************

  NA   - Mulliken gross atomic population
  ZA   - Total nuclear charge
  QA   - Mulliken gross atomic charge
  VA   - Mayer's total valence
  BVA  - Mayer's bonded valence
  FA   - Mayer's free valence

  ATOM       NA         ZA         QA         VA         BVA        FA
  0 Ne     2.0000    10.0000     8.0000    -0.0000     0.0000    -0.0000

  Mayer bond orders larger than 0.100000


--------------------------
ATOM BASIS FOR ELEMENT Ne
--------------------------
 NewGTO Ne
 S 28
    1     262700.000000000000         0.000025986514
    2      39350.000000000000         0.000199896263
    3       8955.000000000000         0.001049455382
    4       2538.000000000000         0.004397717791
    5        829.900000000000         0.015640883115
    6        301.500000000000         0.047733228693
    7        119.000000000000         0.122879231442
    8         50.000000000000         0.252352041126
    9         21.980000000000         0.366123998816
   10          9.891000000000         0.279471967157
   11     262700.000000000000         0.000000169462
   12      39350.000000000000         0.000001327453
   13       8955.000000000000         0.000006976187
   14       2538.000000000000         0.000029316930
   15        829.900000000000         0.000104812262
   16        301.500000000000         0.000327428875
   17        119.000000000000         0.000877982749
   18         50.000000000000         0.002004509800
   19         21.980000000000         0.003594459001
   20          9.891000000000         0.004271318570
   21          4.327000000000         0.055659945971
   22          1.804000000000        -0.002125908269
   23          0.728800000000         0.000798473614
   24          0.286700000000        -0.000195030653
   25         24.313000000000        -0.002210741142
   26         54.680000000000        -0.001800966698
   27        122.975000000000        -0.000163928032
   28        276.571000000000        -0.000002146213
 S 28
    1     262700.000000000000        -0.000001147200
    2      39350.000000000000        -0.000008824616
    3       8955.000000000000        -0.000046329232
    4       2538.000000000000        -0.000194141545
    5        829.900000000000        -0.000690482053
    6        301.500000000000        -0.002107229977
    7        119.000000000000        -0.005424623624
    8         50.000000000000        -0.011140327195
    9         21.980000000000        -0.016162901329
   10          9.891000000000        -0.012337562804
   11     262700.000000000000         0.000009503425
   12      39350.000000000000         0.000074443493
   13       8955.000000000000         0.000391224313
   14       2538.000000000000         0.001644092457
   15        829.900000000000         0.005877868119
   16        301.500000000000         0.018362200244
   17        119.000000000000         0.049237242887
   18         50.000000000000         0.112412841864
   19         21.980000000000         0.201577139333
   20          9.891000000000         0.239535401116
   21          4.327000000000        -0.167592081260
   22          1.804000000000        -0.801128308631
   23          0.728800000000        -0.228016550230
   24          0.286700000000         0.011983303529
   25         24.313000000000         0.000768734093
   26         54.680000000000         0.000762922234
   27        122.975000000000        -0.000146901732
   28        276.571000000000         0.000070935587
 S 28
    1     262700.000000000000        -0.000000017042
    2      39350.000000000000        -0.000000131095
    3       8955.000000000000        -0.000000688250
    4       2538.000000000000        -0.000002884097
    5        829.900000000000        -0.000010257552
    6        301.500000000000        -0.000031304249
    7        119.000000000000        -0.000080586252
    8         50.000000000000        -0.000165496683
    9         21.980000000000        -0.000240110233
   10          9.891000000000        -0.000183282384
   11     262700.000000000000        -0.000004413807
   12      39350.000000000000        -0.000034574824
   13       8955.000000000000        -0.000181701735
   14       2538.000000000000        -0.000763588667
   15        829.900000000000        -0.002729939831
   16        301.500000000000        -0.008528211386
   17        119.000000000000        -0.022867935751
   18         50.000000000000        -0.052209455578
   19         21.980000000000        -0.093621267171
   20          9.891000000000        -0.111250749261
   21          4.327000000000         0.059297502954
   22          1.804000000000         1.137962692828
   23          0.728800000000        -0.543067370335
   24          0.286700000000        -0.927007148074
   25         24.313000000000        -0.022482257369
   26         54.680000000000         0.003033338617
   27        122.975000000000        -0.001951539908
   28        276.571000000000         0.000430308997
 S 28
    1     262700.000000000000        -0.000012004860
    2      39350.000000000000        -0.000092345078
    3       8955.000000000000        -0.000484811662
    4       2538.000000000000        -0.002031591725
    5        829.900000000000        -0.007225540660
    6        301.500000000000        -0.022051081273
    7        119.000000000000        -0.056765904873
    8         50.000000000000        -0.116577812156
    9         21.980000000000        -0.169136475257
   10          9.891000000000        -0.129106268944
   11     262700.000000000000         0.000006871738
   12      39350.000000000000         0.000053828615
   13       8955.000000000000         0.000282886552
   14       2538.000000000000         0.001188810694
   15        829.900000000000         0.004250170026
   16        301.500000000000         0.013277343332
   17        119.000000000000         0.035602475186
   18         50.000000000000         0.081283499611
   19         21.980000000000         0.145756437207
   20          9.891000000000         0.173203304537
   21          4.327000000000        -0.371984486935
   22          1.804000000000         2.788340965111
   23          0.728800000000        -4.375588881519
   24          0.286700000000         2.409651454792
   25         24.313000000000        -0.165706818427
   26         54.680000000000         0.018068100565
   27        122.975000000000        -0.014636704598
   28        276.571000000000         0.002875361617
 S 28
    1     262700.000000000000        -0.000142878751
    2      39350.000000000000        -0.001099067317
    3       8955.000000000000        -0.005770103413
    4       2538.000000000000        -0.024179480969
    5        829.900000000000        -0.085996522202
    6        301.500000000000        -0.262446284576
    7        119.000000000000        -0.675613165639
    8         50.000000000000        -1.387479066722
    9         21.980000000000        -2.013018725408
   10          9.891000000000        -1.536589529590
   11     262700.000000000000         0.000146836053
   12      39350.000000000000         0.001150215750
   13       8955.000000000000         0.006044750856
   14       2538.000000000000         0.025402637202
   15        829.900000000000         0.090818098899
   16        301.500000000000         0.283711727442
   17        119.000000000000         0.760757591587
   18         50.000000000000         1.736874727856
   19         21.980000000000         3.114539524254
   20          9.891000000000         3.701027193378
   21          4.327000000000        -6.025854696669
   22          1.804000000000         6.683945098413
   23          0.728800000000        -3.999296039740
   24          0.286700000000         1.211826615598
   25         24.313000000000        -1.452663214104
   26         54.680000000000         0.109099197645
   27        122.975000000000        -0.121896205383
   28        276.571000000000         0.020645584306
 S 28
    1     262700.000000000000        -0.000562353955
    2      39350.000000000000        -0.004325799650
    3       8955.000000000000        -0.022710448163
    4       2538.000000000000        -0.095167592302
    5        829.900000000000        -0.338472193620
    6        301.500000000000        -1.032957698442
    7        119.000000000000        -2.659133931897
    8         50.000000000000        -5.460954365253
    9         21.980000000000        -7.923004865092
   10          9.891000000000        -6.047835603779
   11     262700.000000000000         0.000520888358
   12      39350.000000000000         0.004080292138
   13       8955.000000000000         0.021443237406
   14       2538.000000000000         0.090113685940
   15        829.900000000000         0.322169449446
   16        301.500000000000         1.006443122453
   17        119.000000000000         2.698722582987
   18         50.000000000000         6.161414757760
   19         21.980000000000        11.048562962310
   20          9.891000000000        13.129077879034
   21          4.327000000000        -7.319185814558
   22          1.804000000000         4.497462158823
   23          0.728800000000        -2.005253548980
   24          0.286700000000         0.544430529988
   25         24.313000000000        -6.738690081360
   26         54.680000000000         0.411498233848
   27        122.975000000000        -0.509237285413
   28        276.571000000000         0.078018965054
 S 28
    1     262700.000000000000         0.000489802521
    2      39350.000000000000         0.003767711702
    3       8955.000000000000         0.019780486434
    4       2538.000000000000         0.082889657439
    5        829.900000000000         0.294804602105
    6        301.500000000000         0.899691877267
    7        119.000000000000         2.316068898756
    8         50.000000000000         4.756415767996
    9         21.980000000000         6.900827721619
   10          9.891000000000         5.267581214576
   11     262700.000000000000        -0.000479749253
   12      39350.000000000000        -0.003758035819
   13       8955.000000000000        -0.019749677601
   14       2538.000000000000        -0.082996620848
   15        829.900000000000        -0.296724913262
   16        301.500000000000        -0.926955515884
   17        119.000000000000        -2.485580882150
   18         50.000000000000        -5.674794002700
   19         21.980000000000       -10.175961415031
   20          9.891000000000       -12.092159891539
   21          4.327000000000         4.723658432752
   22          1.804000000000        -2.454845875011
   23          0.728800000000         1.047124200563
   24          0.286700000000        -0.283150758356
   25         24.313000000000        11.266446668522
   26         54.680000000000        -4.303420093203
   27        122.975000000000         1.275948277367
   28        276.571000000000        -0.336373689518
 S 28
    1     262700.000000000000        -0.000570454446
    2      39350.000000000000        -0.004388111126
    3       8955.000000000000        -0.023037583414
    4       2538.000000000000        -0.096538444781
    5        829.900000000000        -0.343347755085
    6        301.500000000000        -1.047837055874
    7        119.000000000000        -2.697437731066
    8         50.000000000000        -5.539617307637
    9         21.980000000000        -8.037132695784
   10          9.891000000000        -6.134952344156
   11     262700.000000000000         0.000421835495
   12      39350.000000000000         0.003304378041
   13       8955.000000000000         0.017365561193
   14       2538.000000000000         0.072977540558
   15        829.900000000000         0.260905253383
   16        301.500000000000         0.815056481397
   17        119.000000000000         2.185529697292
   18         50.000000000000         4.989751453265
   19         21.980000000000         8.947552675016
   20          9.891000000000        10.632433946186
   21          4.327000000000        -2.764683659887
   22          1.804000000000         1.401384916237
   23          0.728800000000        -0.598972411899
   24          0.286700000000         0.162769576549
   25         24.313000000000        -8.035200775986
   26         54.680000000000         9.079402263188
   27        122.975000000000        -4.579768796916
   28        276.571000000000         1.011444854410
 S 28
    1     262700.000000000000        -0.000422343973
    2      39350.000000000000        -0.003248799792
    3       8955.000000000000        -0.017056198906
    4       2538.000000000000        -0.071473595417
    5        829.900000000000        -0.254202339699
    6        301.500000000000        -0.775780902252
    7        119.000000000000        -1.997085963934
    8         50.000000000000        -4.101333588997
    9         21.980000000000        -5.950404234423
   10          9.891000000000        -4.542098256733
   11     262700.000000000000         0.000286168933
   12      39350.000000000000         0.002241656645
   13       8955.000000000000         0.011780621092
   14       2538.000000000000         0.049507225482
   15        829.900000000000         0.176995485321
   16        301.500000000000         0.552926074191
   17        119.000000000000         1.482641244052
   18         50.000000000000         3.384996923788
   19         21.980000000000         6.069929246785
   20          9.891000000000         7.212935661690
   21          4.327000000000        -1.616742672074
   22          1.804000000000         0.823709163381
   23          0.728800000000        -0.354268145248
   24          0.286700000000         0.096635440187
   25         24.313000000000        -4.659473857479
   26         54.680000000000         7.785942571360
   27        122.975000000000        -7.101544796762
   28        276.571000000000         4.174648920231
 S 28
    1     262700.000000000000         0.004571268075
    2      39350.000000000000         0.035163600578
    3       8955.000000000000         0.184608903035
    4       2538.000000000000         0.773599212720
    5        829.900000000000         2.751375927239
    6        301.500000000000         8.396716182061
    7        119.000000000000        21.615592729409
    8         50.000000000000        44.391056823888
    9         21.980000000000        64.404595910955
   10          9.891000000000        49.161702514328
   11     262700.000000000000        -0.002077940245
   12      39350.000000000000        -0.016277198587
   13       8955.000000000000        -0.085541873423
   14       2538.000000000000        -0.359483662402
   15        829.900000000000        -1.285206041594
   16        301.500000000000        -4.014926876906
   17        119.000000000000       -10.765808409860
   18         50.000000000000       -24.579262512532
   19         21.980000000000       -44.075190538803
   20          9.891000000000       -52.374830201104
   21          4.327000000000         1.580606572081
   22          1.804000000000        -0.762910117552
   23          0.728800000000         0.322637079044
   24          0.286700000000        -0.087513339175
   25         24.313000000000       -19.569110903131
   26         54.680000000000       -21.927633237611
   27        122.975000000000        -4.265012871394
   28        276.571000000000        -8.864226631562
 P 12
    1        299.100000000000         0.002063729908
    2         70.730000000000         0.016650999981
    3         22.480000000000         0.078916793102
    4          8.246000000000         0.254598263106
    5          3.269000000000         0.500594978724
    6          1.315000000000         0.313690403537
    7          0.515800000000         0.006413945003
    8          0.191800000000         0.002335227264
    9         21.309000000000        -0.002341660225
   10         53.720000000000        -0.002036753903
   11        135.428000000000        -0.000230614480
   12        341.414000000000        -0.000163532881
 P 12
    1        299.100000000000         0.001270723906
    2         70.730000000000         0.010252709745
    3         22.480000000000         0.048592335275
    4          8.246000000000         0.156766686468
    5          3.269000000000         0.374116872200
    6          1.315000000000        -0.060861952233
    7          0.515800000000        -0.921765171463
    8          0.191800000000        -0.099331448791
    9         21.309000000000        -0.001021133220
   10         53.720000000000        -0.002518612697
   11        135.428000000000        -0.000118958103
   12        341.414000000000        -0.000192326161
 P 12
    1        299.100000000000         0.000847547936
    2         70.730000000000         0.006838356424
    3         22.480000000000         0.032410135108
    4          8.246000000000         0.104560306892
    5          3.269000000000         0.289022913754
    6          1.315000000000        -0.201795520932
    7          0.515800000000        -1.064702259519
    8          0.191800000000         1.452387690825
    9         21.309000000000         0.001492044459
   10         53.720000000000        -0.002106885096
   11        135.428000000000         0.000078837890
   12        341.414000000000        -0.000157565739
 P 12
    1        299.100000000000         0.000650484450
    2         70.730000000000         0.005248369236
    3         22.480000000000         0.024874450161
    4          8.246000000000         0.080248975634
    5          3.269000000000         1.228490791938
    6          1.315000000000        -2.873130828681
    7          0.515800000000         2.573172554518
    8          0.191800000000        -1.061775211812
    9         21.309000000000         0.095113613241
   10         53.720000000000        -0.009091721025
   11        135.428000000000         0.006952317246
   12        341.414000000000        -0.000598639998
 P 12
    1        299.100000000000        -0.016711180701
    2         70.730000000000        -0.134832503245
    3         22.480000000000        -0.639033618067
    4          8.246000000000        -2.061625198276
    5          3.269000000000         3.250889795667
    6          1.315000000000        -2.508730251254
    7          0.515800000000         1.246577115657
    8          0.191800000000        -0.380756020167
    9         21.309000000000         0.788158692624
   10         53.720000000000         0.015823946495
   11        135.428000000000         0.054803708104
   12        341.414000000000         0.001770273192
 P 12
    1        299.100000000000        -0.024778201535
    2         70.730000000000        -0.199920460359
    3         22.480000000000        -0.947515562151
    4          8.246000000000        -3.056837548857
    5          3.269000000000         2.245038825391
    6          1.315000000000        -1.258171917516
    7          0.515800000000         0.563179680516
    8          0.191800000000        -0.168211922908
    9         21.309000000000         3.221887499749
   10         53.720000000000        -0.145304725156
   11        135.428000000000         0.189549071187
   12        341.414000000000        -0.005990128502
 P 12
    1        299.100000000000         0.016289886705
    2         70.730000000000         0.131433334444
    3         22.480000000000         0.622923384367
    4          8.246000000000         2.009650994093
    5          3.269000000000        -1.184925435139
    6          1.315000000000         0.632288773534
    7          0.515800000000        -0.282707681376
    8          0.191800000000         0.084873525547
    9         21.309000000000        -3.485866484314
   10         53.720000000000         2.313041659212
   11        135.428000000000        -0.469681636110
   12        341.414000000000         0.096784635731
 P 12
    1        299.100000000000        -0.008820117494
    2         70.730000000000        -0.071164242785
    3         22.480000000000        -0.337280273296
    4          8.246000000000        -1.088120390930
    5          3.269000000000         0.624144339035
    6          1.315000000000        -0.335157996099
    7          0.515800000000         0.151017666464
    8          0.191800000000        -0.045531632108
    9         21.309000000000         2.196279142080
   10         53.720000000000        -2.698594530796
   11        135.428000000000         2.386120956113
   12        341.414000000000        -0.299300371965
 P 12
    1        299.100000000000         0.004654748350
    2         70.730000000000         0.037556375173
    3         22.480000000000         0.177997038776
    4          8.246000000000         0.574247066170
    5          3.269000000000        -0.332774751529
    6          1.315000000000         0.180304868607
    7          0.515800000000        -0.081644498286
    8          0.191800000000         0.024670428954
    9         21.309000000000        -1.176812473654
   10         53.720000000000         1.691799595269
   11        135.428000000000        -2.486139509718
   12        341.414000000000         1.960913584045
 D 7
    1          9.837000000000         0.021695817801
    2          3.844000000000         0.122397527947
    3          1.502000000000         0.445928709389
    4          0.587000000000         0.563866833770
    5         27.044000000000         0.003052757018
    6         75.750000000000         0.000285394599
    7        212.176000000000         0.000045719242
 D 7
    1          9.837000000000         0.063429465865
    2          3.844000000000         0.077647775411
    3          1.502000000000         1.139739245473
    4          0.587000000000        -1.234207935293
    5         27.044000000000        -0.003251443377
    6         75.750000000000         0.002285705138
    7        212.176000000000        -0.000308798307
 D 7
    1          9.837000000000        -0.110250418385
    2          3.844000000000         1.593600922088
    3          1.502000000000        -1.687720447553
    4          0.587000000000         0.712466130254
    5         27.044000000000         0.060939806603
    6         75.750000000000        -0.010342281255
    7        212.176000000000         0.002456742291
 D 7
    1          9.837000000000        -1.721080908565
    2          3.844000000000         1.728560546621
    3          1.502000000000        -0.946538534989
    4          0.587000000000         0.320062889379
    5         27.044000000000         0.181371904990
    6         75.750000000000        -0.055249222428
    7        212.176000000000         0.009238635316
 D 7
    1          9.837000000000        -1.529723478614
    2          3.844000000000         0.919755341217
    3          1.502000000000        -0.438043611262
    4          0.587000000000         0.145947466878
    5         27.044000000000         1.656277958166
    6         75.750000000000        -0.215700599386
    7        212.176000000000         0.044828754665
 D 7
    1          9.837000000000         0.773867983625
    2          3.844000000000        -0.425067901488
    3          1.502000000000         0.202530902312
    4          0.587000000000        -0.068273523434
    5         27.044000000000        -1.327253302677
    6         75.750000000000         1.590633122329
    7        212.176000000000        -0.183288334100
 D 7
    1          9.837000000000        -0.352413736004
    2          3.844000000000         0.195248589749
    3          1.502000000000        -0.094223698632
    4          0.587000000000         0.031995847996
    5         27.044000000000         0.646731619632
    6         75.750000000000        -1.176856254639
    7        212.176000000000         1.415890763038
 F 5
    1          7.090000000000         0.033105415686
    2          2.738000000000        -0.039102194162
    3          1.057000000000         1.018074663877
    4         28.029000000000        -0.002013168788
    5        102.586000000000         0.000313815233
 F 5
    1          7.090000000000         0.100407490777
    2          2.738000000000        -1.341009210592
    3          1.057000000000         0.792333945491
    4         28.029000000000        -0.015246329710
    5        102.586000000000         0.001725944090
 F 5
    1          7.090000000000         1.360733388124
    2          2.738000000000        -1.015335922591
    3          1.057000000000         0.370958176381
    4         28.029000000000        -0.046201354111
    5        102.586000000000         0.007183089596
 F 5
    1          7.090000000000         0.578358018931
    2          2.738000000000        -0.327568735733
    3          1.057000000000         0.116645709891
    4         28.029000000000        -1.138078882990
    5        102.586000000000         0.073912925195
 F 5
    1          7.090000000000         0.177079599797
    2          2.738000000000        -0.100685613336
    3          1.057000000000         0.036576691797
    4         28.029000000000        -0.455969600943
    5        102.586000000000         1.108132488387
 G 3
    1          5.460000000000        -0.074810202627
    2          1.880000000000         1.033266049579
    3         38.794000000000         0.001408492614
 G 3
    1          5.460000000000        -1.133680481284
    2          1.880000000000         0.471303691129
    3         38.794000000000         0.005160789922
 G 3
    1          5.460000000000        -0.118388988382
    2          1.880000000000         0.046514644959
    3         38.794000000000         1.005996085459
 H 1
    1          3.776000000000         1.000000000000
 end
  // -----------------------------------------------
  // The basis set
  // -----------------------------------------------
  BAS[ATNO] = new BFNGauss[NSH];
  // Basis function   1 L = s
  InitBFNGauss(BAS[ATNO][  0]);
  BAS[ATNO][  0].l  = 0;
  BAS[ATNO][  0].ng = 28;
  BAS[ATNO][  0].a[  0] =    262700.000000000000;     BAS[ATNO][  0].d[  0] =         0.000025986514;
  BAS[ATNO][  0].a[  1] =     39350.000000000000;     BAS[ATNO][  0].d[  1] =         0.000199896263;
  BAS[ATNO][  0].a[  2] =      8955.000000000000;     BAS[ATNO][  0].d[  2] =         0.001049455382;
  BAS[ATNO][  0].a[  3] =      2538.000000000000;     BAS[ATNO][  0].d[  3] =         0.004397717791;
  BAS[ATNO][  0].a[  4] =       829.900000000000;     BAS[ATNO][  0].d[  4] =         0.015640883115;
  BAS[ATNO][  0].a[  5] =       301.500000000000;     BAS[ATNO][  0].d[  5] =         0.047733228693;
  BAS[ATNO][  0].a[  6] =       119.000000000000;     BAS[ATNO][  0].d[  6] =         0.122879231442;
  BAS[ATNO][  0].a[  7] =        50.000000000000;     BAS[ATNO][  0].d[  7] =         0.252352041126;
  BAS[ATNO][  0].a[  8] =        21.980000000000;     BAS[ATNO][  0].d[  8] =         0.366123998816;
  BAS[ATNO][  0].a[  9] =         9.891000000000;     BAS[ATNO][  0].d[  9] =         0.279471967157;
  BAS[ATNO][  0].a[ 10] =    262700.000000000000;     BAS[ATNO][  0].d[ 10] =         0.000000169462;
  BAS[ATNO][  0].a[ 11] =     39350.000000000000;     BAS[ATNO][  0].d[ 11] =         0.000001327453;
  BAS[ATNO][  0].a[ 12] =      8955.000000000000;     BAS[ATNO][  0].d[ 12] =         0.000006976187;
  BAS[ATNO][  0].a[ 13] =      2538.000000000000;     BAS[ATNO][  0].d[ 13] =         0.000029316930;
  BAS[ATNO][  0].a[ 14] =       829.900000000000;     BAS[ATNO][  0].d[ 14] =         0.000104812262;
  BAS[ATNO][  0].a[ 15] =       301.500000000000;     BAS[ATNO][  0].d[ 15] =         0.000327428875;
  BAS[ATNO][  0].a[ 16] =       119.000000000000;     BAS[ATNO][  0].d[ 16] =         0.000877982749;
  BAS[ATNO][  0].a[ 17] =        50.000000000000;     BAS[ATNO][  0].d[ 17] =         0.002004509800;
  BAS[ATNO][  0].a[ 18] =        21.980000000000;     BAS[ATNO][  0].d[ 18] =         0.003594459001;
  BAS[ATNO][  0].a[ 19] =         9.891000000000;     BAS[ATNO][  0].d[ 19] =         0.004271318570;
  BAS[ATNO][  0].a[ 20] =         4.327000000000;     BAS[ATNO][  0].d[ 20] =         0.055659945971;
  BAS[ATNO][  0].a[ 21] =         1.804000000000;     BAS[ATNO][  0].d[ 21] =        -0.002125908269;
  BAS[ATNO][  0].a[ 22] =         0.728800000000;     BAS[ATNO][  0].d[ 22] =         0.000798473614;
  BAS[ATNO][  0].a[ 23] =         0.286700000000;     BAS[ATNO][  0].d[ 23] =        -0.000195030653;
  BAS[ATNO][  0].a[ 24] =        24.313000000000;     BAS[ATNO][  0].d[ 24] =        -0.002210741142;
  BAS[ATNO][  0].a[ 25] =        54.680000000000;     BAS[ATNO][  0].d[ 25] =        -0.001800966698;
  BAS[ATNO][  0].a[ 26] =       122.975000000000;     BAS[ATNO][  0].d[ 26] =        -0.000163928032;
  BAS[ATNO][  0].a[ 27] =       276.571000000000;     BAS[ATNO][  0].d[ 27] =        -0.000002146213;

  // Basis function   2 L = s
  InitBFNGauss(BAS[ATNO][  1]);
  BAS[ATNO][  1].l  = 0;
  BAS[ATNO][  1].ng = 28;
  BAS[ATNO][  1].a[  0] =    262700.000000000000;     BAS[ATNO][  1].d[  0] =         0.000001147200;
  BAS[ATNO][  1].a[  1] =     39350.000000000000;     BAS[ATNO][  1].d[  1] =         0.000008824616;
  BAS[ATNO][  1].a[  2] =      8955.000000000000;     BAS[ATNO][  1].d[  2] =         0.000046329232;
  BAS[ATNO][  1].a[  3] =      2538.000000000000;     BAS[ATNO][  1].d[  3] =         0.000194141545;
  BAS[ATNO][  1].a[  4] =       829.900000000000;     BAS[ATNO][  1].d[  4] =         0.000690482053;
  BAS[ATNO][  1].a[  5] =       301.500000000000;     BAS[ATNO][  1].d[  5] =         0.002107229977;
  BAS[ATNO][  1].a[  6] =       119.000000000000;     BAS[ATNO][  1].d[  6] =         0.005424623624;
  BAS[ATNO][  1].a[  7] =        50.000000000000;     BAS[ATNO][  1].d[  7] =         0.011140327195;
  BAS[ATNO][  1].a[  8] =        21.980000000000;     BAS[ATNO][  1].d[  8] =         0.016162901329;
  BAS[ATNO][  1].a[  9] =         9.891000000000;     BAS[ATNO][  1].d[  9] =         0.012337562804;
  BAS[ATNO][  1].a[ 10] =    262700.000000000000;     BAS[ATNO][  1].d[ 10] =        -0.000009503425;
  BAS[ATNO][  1].a[ 11] =     39350.000000000000;     BAS[ATNO][  1].d[ 11] =        -0.000074443493;
  BAS[ATNO][  1].a[ 12] =      8955.000000000000;     BAS[ATNO][  1].d[ 12] =        -0.000391224313;
  BAS[ATNO][  1].a[ 13] =      2538.000000000000;     BAS[ATNO][  1].d[ 13] =        -0.001644092457;
  BAS[ATNO][  1].a[ 14] =       829.900000000000;     BAS[ATNO][  1].d[ 14] =        -0.005877868119;
  BAS[ATNO][  1].a[ 15] =       301.500000000000;     BAS[ATNO][  1].d[ 15] =        -0.018362200244;
  BAS[ATNO][  1].a[ 16] =       119.000000000000;     BAS[ATNO][  1].d[ 16] =        -0.049237242887;
  BAS[ATNO][  1].a[ 17] =        50.000000000000;     BAS[ATNO][  1].d[ 17] =        -0.112412841864;
  BAS[ATNO][  1].a[ 18] =        21.980000000000;     BAS[ATNO][  1].d[ 18] =        -0.201577139333;
  BAS[ATNO][  1].a[ 19] =         9.891000000000;     BAS[ATNO][  1].d[ 19] =        -0.239535401116;
  BAS[ATNO][  1].a[ 20] =         4.327000000000;     BAS[ATNO][  1].d[ 20] =         0.167592081260;
  BAS[ATNO][  1].a[ 21] =         1.804000000000;     BAS[ATNO][  1].d[ 21] =         0.801128308631;
  BAS[ATNO][  1].a[ 22] =         0.728800000000;     BAS[ATNO][  1].d[ 22] =         0.228016550230;
  BAS[ATNO][  1].a[ 23] =         0.286700000000;     BAS[ATNO][  1].d[ 23] =        -0.011983303529;
  BAS[ATNO][  1].a[ 24] =        24.313000000000;     BAS[ATNO][  1].d[ 24] =        -0.000768734093;
  BAS[ATNO][  1].a[ 25] =        54.680000000000;     BAS[ATNO][  1].d[ 25] =        -0.000762922234;
  BAS[ATNO][  1].a[ 26] =       122.975000000000;     BAS[ATNO][  1].d[ 26] =         0.000146901732;
  BAS[ATNO][  1].a[ 27] =       276.571000000000;     BAS[ATNO][  1].d[ 27] =        -0.000070935587;

  // Basis function   3 L = s
  InitBFNGauss(BAS[ATNO][  2]);
  BAS[ATNO][  2].l  = 0;
  BAS[ATNO][  2].ng = 28;
  BAS[ATNO][  2].a[  0] =    262700.000000000000;     BAS[ATNO][  2].d[  0] =        -0.000000017042;
  BAS[ATNO][  2].a[  1] =     39350.000000000000;     BAS[ATNO][  2].d[  1] =        -0.000000131095;
  BAS[ATNO][  2].a[  2] =      8955.000000000000;     BAS[ATNO][  2].d[  2] =        -0.000000688250;
  BAS[ATNO][  2].a[  3] =      2538.000000000000;     BAS[ATNO][  2].d[  3] =        -0.000002884097;
  BAS[ATNO][  2].a[  4] =       829.900000000000;     BAS[ATNO][  2].d[  4] =        -0.000010257552;
  BAS[ATNO][  2].a[  5] =       301.500000000000;     BAS[ATNO][  2].d[  5] =        -0.000031304249;
  BAS[ATNO][  2].a[  6] =       119.000000000000;     BAS[ATNO][  2].d[  6] =        -0.000080586252;
  BAS[ATNO][  2].a[  7] =        50.000000000000;     BAS[ATNO][  2].d[  7] =        -0.000165496683;
  BAS[ATNO][  2].a[  8] =        21.980000000000;     BAS[ATNO][  2].d[  8] =        -0.000240110233;
  BAS[ATNO][  2].a[  9] =         9.891000000000;     BAS[ATNO][  2].d[  9] =        -0.000183282384;
  BAS[ATNO][  2].a[ 10] =    262700.000000000000;     BAS[ATNO][  2].d[ 10] =        -0.000004413807;
  BAS[ATNO][  2].a[ 11] =     39350.000000000000;     BAS[ATNO][  2].d[ 11] =        -0.000034574824;
  BAS[ATNO][  2].a[ 12] =      8955.000000000000;     BAS[ATNO][  2].d[ 12] =        -0.000181701735;
  BAS[ATNO][  2].a[ 13] =      2538.000000000000;     BAS[ATNO][  2].d[ 13] =        -0.000763588667;
  BAS[ATNO][  2].a[ 14] =       829.900000000000;     BAS[ATNO][  2].d[ 14] =        -0.002729939831;
  BAS[ATNO][  2].a[ 15] =       301.500000000000;     BAS[ATNO][  2].d[ 15] =        -0.008528211386;
  BAS[ATNO][  2].a[ 16] =       119.000000000000;     BAS[ATNO][  2].d[ 16] =        -0.022867935751;
  BAS[ATNO][  2].a[ 17] =        50.000000000000;     BAS[ATNO][  2].d[ 17] =        -0.052209455578;
  BAS[ATNO][  2].a[ 18] =        21.980000000000;     BAS[ATNO][  2].d[ 18] =        -0.093621267171;
  BAS[ATNO][  2].a[ 19] =         9.891000000000;     BAS[ATNO][  2].d[ 19] =        -0.111250749261;
  BAS[ATNO][  2].a[ 20] =         4.327000000000;     BAS[ATNO][  2].d[ 20] =         0.059297502954;
  BAS[ATNO][  2].a[ 21] =         1.804000000000;     BAS[ATNO][  2].d[ 21] =         1.137962692828;
  BAS[ATNO][  2].a[ 22] =         0.728800000000;     BAS[ATNO][  2].d[ 22] =        -0.543067370335;
  BAS[ATNO][  2].a[ 23] =         0.286700000000;     BAS[ATNO][  2].d[ 23] =        -0.927007148074;
  BAS[ATNO][  2].a[ 24] =        24.313000000000;     BAS[ATNO][  2].d[ 24] =        -0.022482257369;
  BAS[ATNO][  2].a[ 25] =        54.680000000000;     BAS[ATNO][  2].d[ 25] =         0.003033338617;
  BAS[ATNO][  2].a[ 26] =       122.975000000000;     BAS[ATNO][  2].d[ 26] =        -0.001951539908;
  BAS[ATNO][  2].a[ 27] =       276.571000000000;     BAS[ATNO][  2].d[ 27] =         0.000430308997;

  // Basis function   4 L = s
  InitBFNGauss(BAS[ATNO][  3]);
  BAS[ATNO][  3].l  = 0;
  BAS[ATNO][  3].ng = 28;
  BAS[ATNO][  3].a[  0] =    262700.000000000000;     BAS[ATNO][  3].d[  0] =         0.000012004860;
  BAS[ATNO][  3].a[  1] =     39350.000000000000;     BAS[ATNO][  3].d[  1] =         0.000092345078;
  BAS[ATNO][  3].a[  2] =      8955.000000000000;     BAS[ATNO][  3].d[  2] =         0.000484811662;
  BAS[ATNO][  3].a[  3] =      2538.000000000000;     BAS[ATNO][  3].d[  3] =         0.002031591725;
  BAS[ATNO][  3].a[  4] =       829.900000000000;     BAS[ATNO][  3].d[  4] =         0.007225540660;
  BAS[ATNO][  3].a[  5] =       301.500000000000;     BAS[ATNO][  3].d[  5] =         0.022051081273;
  BAS[ATNO][  3].a[  6] =       119.000000000000;     BAS[ATNO][  3].d[  6] =         0.056765904873;
  BAS[ATNO][  3].a[  7] =        50.000000000000;     BAS[ATNO][  3].d[  7] =         0.116577812156;
  BAS[ATNO][  3].a[  8] =        21.980000000000;     BAS[ATNO][  3].d[  8] =         0.169136475257;
  BAS[ATNO][  3].a[  9] =         9.891000000000;     BAS[ATNO][  3].d[  9] =         0.129106268944;
  BAS[ATNO][  3].a[ 10] =    262700.000000000000;     BAS[ATNO][  3].d[ 10] =        -0.000006871738;
  BAS[ATNO][  3].a[ 11] =     39350.000000000000;     BAS[ATNO][  3].d[ 11] =        -0.000053828615;
  BAS[ATNO][  3].a[ 12] =      8955.000000000000;     BAS[ATNO][  3].d[ 12] =        -0.000282886552;
  BAS[ATNO][  3].a[ 13] =      2538.000000000000;     BAS[ATNO][  3].d[ 13] =        -0.001188810694;
  BAS[ATNO][  3].a[ 14] =       829.900000000000;     BAS[ATNO][  3].d[ 14] =        -0.004250170026;
  BAS[ATNO][  3].a[ 15] =       301.500000000000;     BAS[ATNO][  3].d[ 15] =        -0.013277343332;
  BAS[ATNO][  3].a[ 16] =       119.000000000000;     BAS[ATNO][  3].d[ 16] =        -0.035602475186;
  BAS[ATNO][  3].a[ 17] =        50.000000000000;     BAS[ATNO][  3].d[ 17] =        -0.081283499611;
  BAS[ATNO][  3].a[ 18] =        21.980000000000;     BAS[ATNO][  3].d[ 18] =        -0.145756437207;
  BAS[ATNO][  3].a[ 19] =         9.891000000000;     BAS[ATNO][  3].d[ 19] =        -0.173203304537;
  BAS[ATNO][  3].a[ 20] =         4.327000000000;     BAS[ATNO][  3].d[ 20] =         0.371984486935;
  BAS[ATNO][  3].a[ 21] =         1.804000000000;     BAS[ATNO][  3].d[ 21] =        -2.788340965111;
  BAS[ATNO][  3].a[ 22] =         0.728800000000;     BAS[ATNO][  3].d[ 22] =         4.375588881519;
  BAS[ATNO][  3].a[ 23] =         0.286700000000;     BAS[ATNO][  3].d[ 23] =        -2.409651454792;
  BAS[ATNO][  3].a[ 24] =        24.313000000000;     BAS[ATNO][  3].d[ 24] =         0.165706818427;
  BAS[ATNO][  3].a[ 25] =        54.680000000000;     BAS[ATNO][  3].d[ 25] =        -0.018068100565;
  BAS[ATNO][  3].a[ 26] =       122.975000000000;     BAS[ATNO][  3].d[ 26] =         0.014636704598;
  BAS[ATNO][  3].a[ 27] =       276.571000000000;     BAS[ATNO][  3].d[ 27] =        -0.002875361617;

  // Basis function   5 L = s
  InitBFNGauss(BAS[ATNO][  4]);
  BAS[ATNO][  4].l  = 0;
  BAS[ATNO][  4].ng = 28;
  BAS[ATNO][  4].a[  0] =    262700.000000000000;     BAS[ATNO][  4].d[  0] =        -0.000142878751;
  BAS[ATNO][  4].a[  1] =     39350.000000000000;     BAS[ATNO][  4].d[  1] =        -0.001099067317;
  BAS[ATNO][  4].a[  2] =      8955.000000000000;     BAS[ATNO][  4].d[  2] =        -0.005770103413;
  BAS[ATNO][  4].a[  3] =      2538.000000000000;     BAS[ATNO][  4].d[  3] =        -0.024179480969;
  BAS[ATNO][  4].a[  4] =       829.900000000000;     BAS[ATNO][  4].d[  4] =        -0.085996522202;
  BAS[ATNO][  4].a[  5] =       301.500000000000;     BAS[ATNO][  4].d[  5] =        -0.262446284576;
  BAS[ATNO][  4].a[  6] =       119.000000000000;     BAS[ATNO][  4].d[  6] =        -0.675613165639;
  BAS[ATNO][  4].a[  7] =        50.000000000000;     BAS[ATNO][  4].d[  7] =        -1.387479066722;
  BAS[ATNO][  4].a[  8] =        21.980000000000;     BAS[ATNO][  4].d[  8] =        -2.013018725408;
  BAS[ATNO][  4].a[  9] =         9.891000000000;     BAS[ATNO][  4].d[  9] =        -1.536589529590;
  BAS[ATNO][  4].a[ 10] =    262700.000000000000;     BAS[ATNO][  4].d[ 10] =         0.000146836053;
  BAS[ATNO][  4].a[ 11] =     39350.000000000000;     BAS[ATNO][  4].d[ 11] =         0.001150215750;
  BAS[ATNO][  4].a[ 12] =      8955.000000000000;     BAS[ATNO][  4].d[ 12] =         0.006044750856;
  BAS[ATNO][  4].a[ 13] =      2538.000000000000;     BAS[ATNO][  4].d[ 13] =         0.025402637202;
  BAS[ATNO][  4].a[ 14] =       829.900000000000;     BAS[ATNO][  4].d[ 14] =         0.090818098899;
  BAS[ATNO][  4].a[ 15] =       301.500000000000;     BAS[ATNO][  4].d[ 15] =         0.283711727442;
  BAS[ATNO][  4].a[ 16] =       119.000000000000;     BAS[ATNO][  4].d[ 16] =         0.760757591587;
  BAS[ATNO][  4].a[ 17] =        50.000000000000;     BAS[ATNO][  4].d[ 17] =         1.736874727856;
  BAS[ATNO][  4].a[ 18] =        21.980000000000;     BAS[ATNO][  4].d[ 18] =         3.114539524254;
  BAS[ATNO][  4].a[ 19] =         9.891000000000;     BAS[ATNO][  4].d[ 19] =         3.701027193378;
  BAS[ATNO][  4].a[ 20] =         4.327000000000;     BAS[ATNO][  4].d[ 20] =        -6.025854696669;
  BAS[ATNO][  4].a[ 21] =         1.804000000000;     BAS[ATNO][  4].d[ 21] =         6.683945098413;
  BAS[ATNO][  4].a[ 22] =         0.728800000000;     BAS[ATNO][  4].d[ 22] =        -3.999296039740;
  BAS[ATNO][  4].a[ 23] =         0.286700000000;     BAS[ATNO][  4].d[ 23] =         1.211826615598;
  BAS[ATNO][  4].a[ 24] =        24.313000000000;     BAS[ATNO][  4].d[ 24] =        -1.452663214104;
  BAS[ATNO][  4].a[ 25] =        54.680000000000;     BAS[ATNO][  4].d[ 25] =         0.109099197645;
  BAS[ATNO][  4].a[ 26] =       122.975000000000;     BAS[ATNO][  4].d[ 26] =        -0.121896205383;
  BAS[ATNO][  4].a[ 27] =       276.571000000000;     BAS[ATNO][  4].d[ 27] =         0.020645584306;

  // Basis function   6 L = s
  InitBFNGauss(BAS[ATNO][  5]);
  BAS[ATNO][  5].l  = 0;
  BAS[ATNO][  5].ng = 28;
  BAS[ATNO][  5].a[  0] =    262700.000000000000;     BAS[ATNO][  5].d[  0] =        -0.000562353955;
  BAS[ATNO][  5].a[  1] =     39350.000000000000;     BAS[ATNO][  5].d[  1] =        -0.004325799650;
  BAS[ATNO][  5].a[  2] =      8955.000000000000;     BAS[ATNO][  5].d[  2] =        -0.022710448163;
  BAS[ATNO][  5].a[  3] =      2538.000000000000;     BAS[ATNO][  5].d[  3] =        -0.095167592302;
  BAS[ATNO][  5].a[  4] =       829.900000000000;     BAS[ATNO][  5].d[  4] =        -0.338472193620;
  BAS[ATNO][  5].a[  5] =       301.500000000000;     BAS[ATNO][  5].d[  5] =        -1.032957698442;
  BAS[ATNO][  5].a[  6] =       119.000000000000;     BAS[ATNO][  5].d[  6] =        -2.659133931897;
  BAS[ATNO][  5].a[  7] =        50.000000000000;     BAS[ATNO][  5].d[  7] =        -5.460954365253;
  BAS[ATNO][  5].a[  8] =        21.980000000000;     BAS[ATNO][  5].d[  8] =        -7.923004865092;
  BAS[ATNO][  5].a[  9] =         9.891000000000;     BAS[ATNO][  5].d[  9] =        -6.047835603779;
  BAS[ATNO][  5].a[ 10] =    262700.000000000000;     BAS[ATNO][  5].d[ 10] =         0.000520888358;
  BAS[ATNO][  5].a[ 11] =     39350.000000000000;     BAS[ATNO][  5].d[ 11] =         0.004080292138;
  BAS[ATNO][  5].a[ 12] =      8955.000000000000;     BAS[ATNO][  5].d[ 12] =         0.021443237406;
  BAS[ATNO][  5].a[ 13] =      2538.000000000000;     BAS[ATNO][  5].d[ 13] =         0.090113685940;
  BAS[ATNO][  5].a[ 14] =       829.900000000000;     BAS[ATNO][  5].d[ 14] =         0.322169449446;
  BAS[ATNO][  5].a[ 15] =       301.500000000000;     BAS[ATNO][  5].d[ 15] =         1.006443122453;
  BAS[ATNO][  5].a[ 16] =       119.000000000000;     BAS[ATNO][  5].d[ 16] =         2.698722582987;
  BAS[ATNO][  5].a[ 17] =        50.000000000000;     BAS[ATNO][  5].d[ 17] =         6.161414757760;
  BAS[ATNO][  5].a[ 18] =        21.980000000000;     BAS[ATNO][  5].d[ 18] =        11.048562962310;
  BAS[ATNO][  5].a[ 19] =         9.891000000000;     BAS[ATNO][  5].d[ 19] =        13.129077879034;
  BAS[ATNO][  5].a[ 20] =         4.327000000000;     BAS[ATNO][  5].d[ 20] =        -7.319185814558;
  BAS[ATNO][  5].a[ 21] =         1.804000000000;     BAS[ATNO][  5].d[ 21] =         4.497462158823;
  BAS[ATNO][  5].a[ 22] =         0.728800000000;     BAS[ATNO][  5].d[ 22] =        -2.005253548980;
  BAS[ATNO][  5].a[ 23] =         0.286700000000;     BAS[ATNO][  5].d[ 23] =         0.544430529988;
  BAS[ATNO][  5].a[ 24] =        24.313000000000;     BAS[ATNO][  5].d[ 24] =        -6.738690081360;
  BAS[ATNO][  5].a[ 25] =        54.680000000000;     BAS[ATNO][  5].d[ 25] =         0.411498233848;
  BAS[ATNO][  5].a[ 26] =       122.975000000000;     BAS[ATNO][  5].d[ 26] =        -0.509237285413;
  BAS[ATNO][  5].a[ 27] =       276.571000000000;     BAS[ATNO][  5].d[ 27] =         0.078018965054;

  // Basis function   7 L = s
  InitBFNGauss(BAS[ATNO][  6]);
  BAS[ATNO][  6].l  = 0;
  BAS[ATNO][  6].ng = 28;
  BAS[ATNO][  6].a[  0] =    262700.000000000000;     BAS[ATNO][  6].d[  0] =        -0.000489802521;
  BAS[ATNO][  6].a[  1] =     39350.000000000000;     BAS[ATNO][  6].d[  1] =        -0.003767711702;
  BAS[ATNO][  6].a[  2] =      8955.000000000000;     BAS[ATNO][  6].d[  2] =        -0.019780486434;
  BAS[ATNO][  6].a[  3] =      2538.000000000000;     BAS[ATNO][  6].d[  3] =        -0.082889657439;
  BAS[ATNO][  6].a[  4] =       829.900000000000;     BAS[ATNO][  6].d[  4] =        -0.294804602105;
  BAS[ATNO][  6].a[  5] =       301.500000000000;     BAS[ATNO][  6].d[  5] =        -0.899691877267;
  BAS[ATNO][  6].a[  6] =       119.000000000000;     BAS[ATNO][  6].d[  6] =        -2.316068898756;
  BAS[ATNO][  6].a[  7] =        50.000000000000;     BAS[ATNO][  6].d[  7] =        -4.756415767996;
  BAS[ATNO][  6].a[  8] =        21.980000000000;     BAS[ATNO][  6].d[  8] =        -6.900827721619;
  BAS[ATNO][  6].a[  9] =         9.891000000000;     BAS[ATNO][  6].d[  9] =        -5.267581214576;
  BAS[ATNO][  6].a[ 10] =    262700.000000000000;     BAS[ATNO][  6].d[ 10] =         0.000479749253;
  BAS[ATNO][  6].a[ 11] =     39350.000000000000;     BAS[ATNO][  6].d[ 11] =         0.003758035819;
  BAS[ATNO][  6].a[ 12] =      8955.000000000000;     BAS[ATNO][  6].d[ 12] =         0.019749677601;
  BAS[ATNO][  6].a[ 13] =      2538.000000000000;     BAS[ATNO][  6].d[ 13] =         0.082996620848;
  BAS[ATNO][  6].a[ 14] =       829.900000000000;     BAS[ATNO][  6].d[ 14] =         0.296724913262;
  BAS[ATNO][  6].a[ 15] =       301.500000000000;     BAS[ATNO][  6].d[ 15] =         0.926955515884;
  BAS[ATNO][  6].a[ 16] =       119.000000000000;     BAS[ATNO][  6].d[ 16] =         2.485580882150;
  BAS[ATNO][  6].a[ 17] =        50.000000000000;     BAS[ATNO][  6].d[ 17] =         5.674794002700;
  BAS[ATNO][  6].a[ 18] =        21.980000000000;     BAS[ATNO][  6].d[ 18] =        10.175961415031;
  BAS[ATNO][  6].a[ 19] =         9.891000000000;     BAS[ATNO][  6].d[ 19] =        12.092159891539;
  BAS[ATNO][  6].a[ 20] =         4.327000000000;     BAS[ATNO][  6].d[ 20] =        -4.723658432752;
  BAS[ATNO][  6].a[ 21] =         1.804000000000;     BAS[ATNO][  6].d[ 21] =         2.454845875011;
  BAS[ATNO][  6].a[ 22] =         0.728800000000;     BAS[ATNO][  6].d[ 22] =        -1.047124200563;
  BAS[ATNO][  6].a[ 23] =         0.286700000000;     BAS[ATNO][  6].d[ 23] =         0.283150758356;
  BAS[ATNO][  6].a[ 24] =        24.313000000000;     BAS[ATNO][  6].d[ 24] =       -11.266446668522;
  BAS[ATNO][  6].a[ 25] =        54.680000000000;     BAS[ATNO][  6].d[ 25] =         4.303420093203;
  BAS[ATNO][  6].a[ 26] =       122.975000000000;     BAS[ATNO][  6].d[ 26] =        -1.275948277367;
  BAS[ATNO][  6].a[ 27] =       276.571000000000;     BAS[ATNO][  6].d[ 27] =         0.336373689518;

  // Basis function   8 L = s
  InitBFNGauss(BAS[ATNO][  7]);
  BAS[ATNO][  7].l  = 0;
  BAS[ATNO][  7].ng = 28;
  BAS[ATNO][  7].a[  0] =    262700.000000000000;     BAS[ATNO][  7].d[  0] =        -0.000570454446;
  BAS[ATNO][  7].a[  1] =     39350.000000000000;     BAS[ATNO][  7].d[  1] =        -0.004388111126;
  BAS[ATNO][  7].a[  2] =      8955.000000000000;     BAS[ATNO][  7].d[  2] =        -0.023037583414;
  BAS[ATNO][  7].a[  3] =      2538.000000000000;     BAS[ATNO][  7].d[  3] =        -0.096538444781;
  BAS[ATNO][  7].a[  4] =       829.900000000000;     BAS[ATNO][  7].d[  4] =        -0.343347755085;
  BAS[ATNO][  7].a[  5] =       301.500000000000;     BAS[ATNO][  7].d[  5] =        -1.047837055874;
[...]
  BAS[ATNO][ 14].a[  6] =         0.515800000000;     BAS[ATNO][ 14].d[  6] =         1.246577115657;
  BAS[ATNO][ 14].a[  7] =         0.191800000000;     BAS[ATNO][ 14].d[  7] =        -0.380756020167;
  BAS[ATNO][ 14].a[  8] =        21.309000000000;     BAS[ATNO][ 14].d[  8] =         0.788158692624;
  BAS[ATNO][ 14].a[  9] =        53.720000000000;     BAS[ATNO][ 14].d[  9] =         0.015823946495;
  BAS[ATNO][ 14].a[ 10] =       135.428000000000;     BAS[ATNO][ 14].d[ 10] =         0.054803708104;
  BAS[ATNO][ 14].a[ 11] =       341.414000000000;     BAS[ATNO][ 14].d[ 11] =         0.001770273192;

  // Basis function  16 L = p
  InitBFNGauss(BAS[ATNO][ 15]);
  BAS[ATNO][ 15].l  = 1;
  BAS[ATNO][ 15].ng = 12;
  BAS[ATNO][ 15].a[  0] =       299.100000000000;     BAS[ATNO][ 15].d[  0] =        -0.024778201535;
  BAS[ATNO][ 15].a[  1] =        70.730000000000;     BAS[ATNO][ 15].d[  1] =        -0.199920460359;
  BAS[ATNO][ 15].a[  2] =        22.480000000000;     BAS[ATNO][ 15].d[  2] =        -0.947515562151;
  BAS[ATNO][ 15].a[  3] =         8.246000000000;     BAS[ATNO][ 15].d[  3] =        -3.056837548857;
  BAS[ATNO][ 15].a[  4] =         3.269000000000;     BAS[ATNO][ 15].d[  4] =         2.245038825391;
  BAS[ATNO][ 15].a[  5] =         1.315000000000;     BAS[ATNO][ 15].d[  5] =        -1.258171917516;
  BAS[ATNO][ 15].a[  6] =         0.515800000000;     BAS[ATNO][ 15].d[  6] =         0.563179680516;
  BAS[ATNO][ 15].a[  7] =         0.191800000000;     BAS[ATNO][ 15].d[  7] =        -0.168211922908;
  BAS[ATNO][ 15].a[  8] =        21.309000000000;     BAS[ATNO][ 15].d[  8] =         3.221887499749;
  BAS[ATNO][ 15].a[  9] =        53.720000000000;     BAS[ATNO][ 15].d[  9] =        -0.145304725156;
  BAS[ATNO][ 15].a[ 10] =       135.428000000000;     BAS[ATNO][ 15].d[ 10] =         0.189549071187;
  BAS[ATNO][ 15].a[ 11] =       341.414000000000;     BAS[ATNO][ 15].d[ 11] =        -0.005990128502;

  // Basis function  17 L = p
  InitBFNGauss(BAS[ATNO][ 16]);
  BAS[ATNO][ 16].l  = 1;
  BAS[ATNO][ 16].ng = 12;
  BAS[ATNO][ 16].a[  0] =       299.100000000000;     BAS[ATNO][ 16].d[  0] =        -0.016289886705;
  BAS[ATNO][ 16].a[  1] =        70.730000000000;     BAS[ATNO][ 16].d[  1] =        -0.131433334444;
  BAS[ATNO][ 16].a[  2] =        22.480000000000;     BAS[ATNO][ 16].d[  2] =        -0.622923384367;
  BAS[ATNO][ 16].a[  3] =         8.246000000000;     BAS[ATNO][ 16].d[  3] =        -2.009650994093;
  BAS[ATNO][ 16].a[  4] =         3.269000000000;     BAS[ATNO][ 16].d[  4] =         1.184925435139;
  BAS[ATNO][ 16].a[  5] =         1.315000000000;     BAS[ATNO][ 16].d[  5] =        -0.632288773534;
  BAS[ATNO][ 16].a[  6] =         0.515800000000;     BAS[ATNO][ 16].d[  6] =         0.282707681376;
  BAS[ATNO][ 16].a[  7] =         0.191800000000;     BAS[ATNO][ 16].d[  7] =        -0.084873525547;
  BAS[ATNO][ 16].a[  8] =        21.309000000000;     BAS[ATNO][ 16].d[  8] =         3.485866484314;
  BAS[ATNO][ 16].a[  9] =        53.720000000000;     BAS[ATNO][ 16].d[  9] =        -2.313041659212;
  BAS[ATNO][ 16].a[ 10] =       135.428000000000;     BAS[ATNO][ 16].d[ 10] =         0.469681636110;
  BAS[ATNO][ 16].a[ 11] =       341.414000000000;     BAS[ATNO][ 16].d[ 11] =        -0.096784635731;

  // Basis function  18 L = p
  InitBFNGauss(BAS[ATNO][ 17]);
  BAS[ATNO][ 17].l  = 1;
  BAS[ATNO][ 17].ng = 12;
  BAS[ATNO][ 17].a[  0] =       299.100000000000;     BAS[ATNO][ 17].d[  0] =         0.008820117494;
  BAS[ATNO][ 17].a[  1] =        70.730000000000;     BAS[ATNO][ 17].d[  1] =         0.071164242785;
  BAS[ATNO][ 17].a[  2] =        22.480000000000;     BAS[ATNO][ 17].d[  2] =         0.337280273296;
  BAS[ATNO][ 17].a[  3] =         8.246000000000;     BAS[ATNO][ 17].d[  3] =         1.088120390930;
  BAS[ATNO][ 17].a[  4] =         3.269000000000;     BAS[ATNO][ 17].d[  4] =        -0.624144339035;
  BAS[ATNO][ 17].a[  5] =         1.315000000000;     BAS[ATNO][ 17].d[  5] =         0.335157996099;
  BAS[ATNO][ 17].a[  6] =         0.515800000000;     BAS[ATNO][ 17].d[  6] =        -0.151017666464;
  BAS[ATNO][ 17].a[  7] =         0.191800000000;     BAS[ATNO][ 17].d[  7] =         0.045531632108;
  BAS[ATNO][ 17].a[  8] =        21.309000000000;     BAS[ATNO][ 17].d[  8] =        -2.196279142080;
  BAS[ATNO][ 17].a[  9] =        53.720000000000;     BAS[ATNO][ 17].d[  9] =         2.698594530796;
  BAS[ATNO][ 17].a[ 10] =       135.428000000000;     BAS[ATNO][ 17].d[ 10] =        -2.386120956113;
  BAS[ATNO][ 17].a[ 11] =       341.414000000000;     BAS[ATNO][ 17].d[ 11] =         0.299300371965;

  // Basis function  19 L = p
  InitBFNGauss(BAS[ATNO][ 18]);
  BAS[ATNO][ 18].l  = 1;
  BAS[ATNO][ 18].ng = 12;
  BAS[ATNO][ 18].a[  0] =       299.100000000000;     BAS[ATNO][ 18].d[  0] =        -0.004654748350;
  BAS[ATNO][ 18].a[  1] =        70.730000000000;     BAS[ATNO][ 18].d[  1] =        -0.037556375173;
  BAS[ATNO][ 18].a[  2] =        22.480000000000;     BAS[ATNO][ 18].d[  2] =        -0.177997038776;
  BAS[ATNO][ 18].a[  3] =         8.246000000000;     BAS[ATNO][ 18].d[  3] =        -0.574247066170;
  BAS[ATNO][ 18].a[  4] =         3.269000000000;     BAS[ATNO][ 18].d[  4] =         0.332774751529;
  BAS[ATNO][ 18].a[  5] =         1.315000000000;     BAS[ATNO][ 18].d[  5] =        -0.180304868607;
  BAS[ATNO][ 18].a[  6] =         0.515800000000;     BAS[ATNO][ 18].d[  6] =         0.081644498286;
  BAS[ATNO][ 18].a[  7] =         0.191800000000;     BAS[ATNO][ 18].d[  7] =        -0.024670428954;
  BAS[ATNO][ 18].a[  8] =        21.309000000000;     BAS[ATNO][ 18].d[  8] =         1.176812473654;
  BAS[ATNO][ 18].a[  9] =        53.720000000000;     BAS[ATNO][ 18].d[  9] =        -1.691799595269;
  BAS[ATNO][ 18].a[ 10] =       135.428000000000;     BAS[ATNO][ 18].d[ 10] =         2.486139509718;
  BAS[ATNO][ 18].a[ 11] =       341.414000000000;     BAS[ATNO][ 18].d[ 11] =        -1.960913584045;

  // Basis function  20 L = d
  InitBFNGauss(BAS[ATNO][ 19]);
  BAS[ATNO][ 19].l  = 2;
  BAS[ATNO][ 19].ng = 7;
  BAS[ATNO][ 19].a[  0] =         9.837000000000;     BAS[ATNO][ 19].d[  0] =         0.021695817801;
  BAS[ATNO][ 19].a[  1] =         3.844000000000;     BAS[ATNO][ 19].d[  1] =         0.122397527947;
  BAS[ATNO][ 19].a[  2] =         1.502000000000;     BAS[ATNO][ 19].d[  2] =         0.445928709389;
  BAS[ATNO][ 19].a[  3] =         0.587000000000;     BAS[ATNO][ 19].d[  3] =         0.563866833770;
  BAS[ATNO][ 19].a[  4] =        27.044000000000;     BAS[ATNO][ 19].d[  4] =         0.003052757018;
  BAS[ATNO][ 19].a[  5] =        75.750000000000;     BAS[ATNO][ 19].d[  5] =         0.000285394599;
  BAS[ATNO][ 19].a[  6] =       212.176000000000;     BAS[ATNO][ 19].d[  6] =         0.000045719242;

  // Basis function  21 L = d
  InitBFNGauss(BAS[ATNO][ 20]);
  BAS[ATNO][ 20].l  = 2;
  BAS[ATNO][ 20].ng = 7;
  BAS[ATNO][ 20].a[  0] =         9.837000000000;     BAS[ATNO][ 20].d[  0] =        -0.063429465865;
  BAS[ATNO][ 20].a[  1] =         3.844000000000;     BAS[ATNO][ 20].d[  1] =        -0.077647775411;
  BAS[ATNO][ 20].a[  2] =         1.502000000000;     BAS[ATNO][ 20].d[  2] =        -1.139739245473;
  BAS[ATNO][ 20].a[  3] =         0.587000000000;     BAS[ATNO][ 20].d[  3] =         1.234207935293;
  BAS[ATNO][ 20].a[  4] =        27.044000000000;     BAS[ATNO][ 20].d[  4] =         0.003251443377;
  BAS[ATNO][ 20].a[  5] =        75.750000000000;     BAS[ATNO][ 20].d[  5] =        -0.002285705138;
  BAS[ATNO][ 20].a[  6] =       212.176000000000;     BAS[ATNO][ 20].d[  6] =         0.000308798307;

  // Basis function  22 L = d
  InitBFNGauss(BAS[ATNO][ 21]);
  BAS[ATNO][ 21].l  = 2;
  BAS[ATNO][ 21].ng = 7;
  BAS[ATNO][ 21].a[  0] =         9.837000000000;     BAS[ATNO][ 21].d[  0] =         0.110250418385;
  BAS[ATNO][ 21].a[  1] =         3.844000000000;     BAS[ATNO][ 21].d[  1] =        -1.593600922088;
  BAS[ATNO][ 21].a[  2] =         1.502000000000;     BAS[ATNO][ 21].d[  2] =         1.687720447553;
  BAS[ATNO][ 21].a[  3] =         0.587000000000;     BAS[ATNO][ 21].d[  3] =        -0.712466130254;
  BAS[ATNO][ 21].a[  4] =        27.044000000000;     BAS[ATNO][ 21].d[  4] =        -0.060939806603;
  BAS[ATNO][ 21].a[  5] =        75.750000000000;     BAS[ATNO][ 21].d[  5] =         0.010342281255;
  BAS[ATNO][ 21].a[  6] =       212.176000000000;     BAS[ATNO][ 21].d[  6] =        -0.002456742291;

  // Basis function  23 L = d
  InitBFNGauss(BAS[ATNO][ 22]);
  BAS[ATNO][ 22].l  = 2;
  BAS[ATNO][ 22].ng = 7;
  BAS[ATNO][ 22].a[  0] =         9.837000000000;     BAS[ATNO][ 22].d[  0] =        -1.721080908565;
  BAS[ATNO][ 22].a[  1] =         3.844000000000;     BAS[ATNO][ 22].d[  1] =         1.728560546621;
  BAS[ATNO][ 22].a[  2] =         1.502000000000;     BAS[ATNO][ 22].d[  2] =        -0.946538534989;
  BAS[ATNO][ 22].a[  3] =         0.587000000000;     BAS[ATNO][ 22].d[  3] =         0.320062889379;
  BAS[ATNO][ 22].a[  4] =        27.044000000000;     BAS[ATNO][ 22].d[  4] =         0.181371904990;
  BAS[ATNO][ 22].a[  5] =        75.750000000000;     BAS[ATNO][ 22].d[  5] =        -0.055249222428;
  BAS[ATNO][ 22].a[  6] =       212.176000000000;     BAS[ATNO][ 22].d[  6] =         0.009238635316;

  // Basis function  24 L = d
  InitBFNGauss(BAS[ATNO][ 23]);
  BAS[ATNO][ 23].l  = 2;
  BAS[ATNO][ 23].ng = 7;
  BAS[ATNO][ 23].a[  0] =         9.837000000000;     BAS[ATNO][ 23].d[  0] =        -1.529723478614;
  BAS[ATNO][ 23].a[  1] =         3.844000000000;     BAS[ATNO][ 23].d[  1] =         0.919755341217;
  BAS[ATNO][ 23].a[  2] =         1.502000000000;     BAS[ATNO][ 23].d[  2] =        -0.438043611262;
  BAS[ATNO][ 23].a[  3] =         0.587000000000;     BAS[ATNO][ 23].d[  3] =         0.145947466878;
  BAS[ATNO][ 23].a[  4] =        27.044000000000;     BAS[ATNO][ 23].d[  4] =         1.656277958166;
  BAS[ATNO][ 23].a[  5] =        75.750000000000;     BAS[ATNO][ 23].d[  5] =        -0.215700599386;
  BAS[ATNO][ 23].a[  6] =       212.176000000000;     BAS[ATNO][ 23].d[  6] =         0.044828754665;

  // Basis function  25 L = d
  InitBFNGauss(BAS[ATNO][ 24]);
  BAS[ATNO][ 24].l  = 2;
  BAS[ATNO][ 24].ng = 7;
  BAS[ATNO][ 24].a[  0] =         9.837000000000;     BAS[ATNO][ 24].d[  0] =         0.773867983625;
  BAS[ATNO][ 24].a[  1] =         3.844000000000;     BAS[ATNO][ 24].d[  1] =        -0.425067901488;
  BAS[ATNO][ 24].a[  2] =         1.502000000000;     BAS[ATNO][ 24].d[  2] =         0.202530902312;
  BAS[ATNO][ 24].a[  3] =         0.587000000000;     BAS[ATNO][ 24].d[  3] =        -0.068273523434;
  BAS[ATNO][ 24].a[  4] =        27.044000000000;     BAS[ATNO][ 24].d[  4] =        -1.327253302677;
  BAS[ATNO][ 24].a[  5] =        75.750000000000;     BAS[ATNO][ 24].d[  5] =         1.590633122329;
  BAS[ATNO][ 24].a[  6] =       212.176000000000;     BAS[ATNO][ 24].d[  6] =        -0.183288334100;

  // Basis function  26 L = d
  InitBFNGauss(BAS[ATNO][ 25]);
  BAS[ATNO][ 25].l  = 2;
  BAS[ATNO][ 25].ng = 7;
  BAS[ATNO][ 25].a[  0] =         9.837000000000;     BAS[ATNO][ 25].d[  0] =        -0.352413736004;
  BAS[ATNO][ 25].a[  1] =         3.844000000000;     BAS[ATNO][ 25].d[  1] =         0.195248589749;
  BAS[ATNO][ 25].a[  2] =         1.502000000000;     BAS[ATNO][ 25].d[  2] =        -0.094223698632;
  BAS[ATNO][ 25].a[  3] =         0.587000000000;     BAS[ATNO][ 25].d[  3] =         0.031995847996;
  BAS[ATNO][ 25].a[  4] =        27.044000000000;     BAS[ATNO][ 25].d[  4] =         0.646731619632;
  BAS[ATNO][ 25].a[  5] =        75.750000000000;     BAS[ATNO][ 25].d[  5] =        -1.176856254639;
  BAS[ATNO][ 25].a[  6] =       212.176000000000;     BAS[ATNO][ 25].d[  6] =         1.415890763038;

  // Basis function  27 L = f
  InitBFNGauss(BAS[ATNO][ 26]);
  BAS[ATNO][ 26].l  = 3;
  BAS[ATNO][ 26].ng = 5;
  BAS[ATNO][ 26].a[  0] =         7.090000000000;     BAS[ATNO][ 26].d[  0] =         0.033105415686;
  BAS[ATNO][ 26].a[  1] =         2.738000000000;     BAS[ATNO][ 26].d[  1] =        -0.039102194162;
  BAS[ATNO][ 26].a[  2] =         1.057000000000;     BAS[ATNO][ 26].d[  2] =         1.018074663877;
  BAS[ATNO][ 26].a[  3] =        28.029000000000;     BAS[ATNO][ 26].d[  3] =        -0.002013168788;
  BAS[ATNO][ 26].a[  4] =       102.586000000000;     BAS[ATNO][ 26].d[  4] =         0.000313815233;

  // Basis function  28 L = f
  InitBFNGauss(BAS[ATNO][ 27]);
  BAS[ATNO][ 27].l  = 3;
  BAS[ATNO][ 27].ng = 5;
  BAS[ATNO][ 27].a[  0] =         7.090000000000;     BAS[ATNO][ 27].d[  0] =        -0.100407490777;
  BAS[ATNO][ 27].a[  1] =         2.738000000000;     BAS[ATNO][ 27].d[  1] =         1.341009210592;
  BAS[ATNO][ 27].a[  2] =         1.057000000000;     BAS[ATNO][ 27].d[  2] =        -0.792333945491;
  BAS[ATNO][ 27].a[  3] =        28.029000000000;     BAS[ATNO][ 27].d[  3] =         0.015246329710;
  BAS[ATNO][ 27].a[  4] =       102.586000000000;     BAS[ATNO][ 27].d[  4] =        -0.001725944090;

  // Basis function  29 L = f
  InitBFNGauss(BAS[ATNO][ 28]);
  BAS[ATNO][ 28].l  = 3;
  BAS[ATNO][ 28].ng = 5;
  BAS[ATNO][ 28].a[  0] =         7.090000000000;     BAS[ATNO][ 28].d[  0] =         1.360733388124;
  BAS[ATNO][ 28].a[  1] =         2.738000000000;     BAS[ATNO][ 28].d[  1] =        -1.015335922591;
  BAS[ATNO][ 28].a[  2] =         1.057000000000;     BAS[ATNO][ 28].d[  2] =         0.370958176381;
  BAS[ATNO][ 28].a[  3] =        28.029000000000;     BAS[ATNO][ 28].d[  3] =        -0.046201354111;
  BAS[ATNO][ 28].a[  4] =       102.586000000000;     BAS[ATNO][ 28].d[  4] =         0.007183089596;

  // Basis function  30 L = f
  InitBFNGauss(BAS[ATNO][ 29]);
  BAS[ATNO][ 29].l  = 3;
  BAS[ATNO][ 29].ng = 5;
  BAS[ATNO][ 29].a[  0] =         7.090000000000;     BAS[ATNO][ 29].d[  0] =        -0.578358018931;
  BAS[ATNO][ 29].a[  1] =         2.738000000000;     BAS[ATNO][ 29].d[  1] =         0.327568735733;
  BAS[ATNO][ 29].a[  2] =         1.057000000000;     BAS[ATNO][ 29].d[  2] =        -0.116645709891;
  BAS[ATNO][ 29].a[  3] =        28.029000000000;     BAS[ATNO][ 29].d[  3] =         1.138078882990;
  BAS[ATNO][ 29].a[  4] =       102.586000000000;     BAS[ATNO][ 29].d[  4] =        -0.073912925195;

  // Basis function  31 L = f
  InitBFNGauss(BAS[ATNO][ 30]);
  BAS[ATNO][ 30].l  = 3;
  BAS[ATNO][ 30].ng = 5;
  BAS[ATNO][ 30].a[  0] =         7.090000000000;     BAS[ATNO][ 30].d[  0] =         0.177079599797;
  BAS[ATNO][ 30].a[  1] =         2.738000000000;     BAS[ATNO][ 30].d[  1] =        -0.100685613336;
  BAS[ATNO][ 30].a[  2] =         1.057000000000;     BAS[ATNO][ 30].d[  2] =         0.036576691797;
  BAS[ATNO][ 30].a[  3] =        28.029000000000;     BAS[ATNO][ 30].d[  3] =        -0.455969600943;
  BAS[ATNO][ 30].a[  4] =       102.586000000000;     BAS[ATNO][ 30].d[  4] =         1.108132488387;

  // Basis function  32 L = g
  InitBFNGauss(BAS[ATNO][ 31]);
  BAS[ATNO][ 31].l  = 4;
  BAS[ATNO][ 31].ng = 3;
  BAS[ATNO][ 31].a[  0] =         5.460000000000;     BAS[ATNO][ 31].d[  0] =        -0.074810202627;
  BAS[ATNO][ 31].a[  1] =         1.880000000000;     BAS[ATNO][ 31].d[  1] =         1.033266049579;
  BAS[ATNO][ 31].a[  2] =        38.794000000000;     BAS[ATNO][ 31].d[  2] =         0.001408492614;

  // Basis function  33 L = g
  InitBFNGauss(BAS[ATNO][ 32]);
  BAS[ATNO][ 32].l  = 4;
  BAS[ATNO][ 32].ng = 3;
  BAS[ATNO][ 32].a[  0] =         5.460000000000;     BAS[ATNO][ 32].d[  0] =         1.133680481284;
  BAS[ATNO][ 32].a[  1] =         1.880000000000;     BAS[ATNO][ 32].d[  1] =        -0.471303691129;
  BAS[ATNO][ 32].a[  2] =        38.794000000000;     BAS[ATNO][ 32].d[  2] =        -0.005160789922;

  // Basis function  34 L = g
  InitBFNGauss(BAS[ATNO][ 33]);
  BAS[ATNO][ 33].l  = 4;
  BAS[ATNO][ 33].ng = 3;
  BAS[ATNO][ 33].a[  0] =         5.460000000000;     BAS[ATNO][ 33].d[  0] =        -0.118388988382;
  BAS[ATNO][ 33].a[  1] =         1.880000000000;     BAS[ATNO][ 33].d[  1] =         0.046514644959;
  BAS[ATNO][ 33].a[  2] =        38.794000000000;     BAS[ATNO][ 33].d[  2] =         1.005996085459;

  // Basis function  35 L = h
  InitBFNGauss(BAS[ATNO][ 34]);
  BAS[ATNO][ 34].l  = 5;
  BAS[ATNO][ 34].ng = 1;
  BAS[ATNO][ 34].a[  0] =         3.776000000000;     BAS[ATNO][ 34].d[  0] =         1.000000000000;

-------
TIMINGS
-------

Total SCF time: 0 days 0 hours 0 min 1 sec 

Total time                  ....       1.805 sec
Sum of individual times     ....       1.588 sec  ( 88.0%)

Fock matrix formation       ....       1.088 sec  ( 60.3%)
  XC integration            ....       0.041 sec  (  3.8% of F)
    Basis function eval.    ....       0.006 sec  ( 13.4% of XC)
    Density eval.           ....       0.004 sec  ( 10.4% of XC)
    XC-Functional eval.     ....       0.002 sec  (  3.8% of XC)
    XC-Potential eval.      ....       0.009 sec  ( 21.9% of XC)
Diagonalization             ....       0.009 sec  (  0.5%)
Density matrix formation    ....       0.004 sec  (  0.2%)
Population analysis         ....       0.002 sec  (  0.1%)
Initial guess               ....       0.097 sec  (  5.4%)
Orbital Transformation      ....       0.000 sec  (  0.0%)
Orbital Orthonormalization  ....       0.000 sec  (  0.0%)
DIIS solution               ....       0.002 sec  (  0.1%)
SOSCF solution              ....       0.004 sec  (  0.2%)
Grid generation             ....       0.382 sec  ( 21.1%)

-------------------------   --------------------
FINAL SINGLE POINT ENERGY       -93.227964377550
-------------------------   --------------------


                            ***************************************
                            *     ORCA property calculations      *
                            ***************************************

                                    ---------------------
                                    Active property flags
                                    ---------------------
   (+) Dipole Moment


------------------------------------------------------------------------------
                       ORCA ELECTRIC PROPERTIES CALCULATION
------------------------------------------------------------------------------

Dipole Moment Calculation                       ... on
Quadrupole Moment Calculation                   ... off
Polarizability Calculation                      ... off
GBWName                                         ... Ne_cc-pcv5z_548.143956_.gbw
Electron density file                           ... Ne_cc-pcv5z_548.143956_.scfp
The origin for moment calculation is the CENTER OF MASS  = ( 0.000000,  0.000000  0.000000)

-------------
DIPOLE MOMENT
-------------
                                X             Y             Z
Electronic contribution:     -0.00000      -0.00000      -0.00000
Nuclear contribution   :      0.00000       0.00000       0.00000
                        -----------------------------------------
Total Dipole Moment    :     -0.00000      -0.00000      -0.00000
                        -----------------------------------------
Magnitude (a.u.)       :      0.00000
Magnitude (Debye)      :      0.00000



--------------------
Rotational spectrum 
--------------------
 
Rotational constants in cm-1:     0.000000     0.000000     0.000000 
Rotational constants in MHz :     0.000000     0.000000     0.000000 

 Dipole components along the rotational axes: 
x,y,z [a.u.] :    -0.000000    -0.000000    -0.000000 
x,y,z [Debye]:    -0.000000    -0.000000    -0.000000 

 

Timings for individual modules:

Sum of individual times         ...        3.004 sec (=   0.050 min)
GTO integral calculation        ...        0.584 sec (=   0.010 min)  19.4 %
Relativistic integrals          ...        0.356 sec (=   0.006 min)  11.9 %
SCF iterations                  ...        2.063 sec (=   0.034 min)  68.7 %
                             ****ORCA TERMINATED NORMALLY****
TOTAL RUN TIME: 0 days 0 hours 0 minutes 3 seconds 351 msec
