
                                 *****************
                                 * O   R   C   A *
                                 *****************

           --- An Ab Initio, DFT and Semiempirical electronic structure package ---

                  #######################################################
                  #                        -***-                        #
                  #          Department of theory and spectroscopy      #
                  #               Directorship: Frank Neese             #
                  #        Max Planck Institute fuer Kohlenforschung    #
                  #                Kaiser Wilhelm Platz 1               #
                  #                 D-45470 Muelheim/Ruhr               #
                  #                      Germany                        #
                  #                                                     #
                  #                  All rights reserved                #
                  #                        -***-                        #
                  #######################################################


                         Program Version 4.2.1 -  RELEASE  -


 With contributions from (in alphabetic order):
   Daniel Aravena         : Magnetic Suceptibility
   Michael Atanasov       : Ab Initio Ligand Field Theory (pilot matlab implementation)
   Alexander A. Auer      : GIAO ZORA, VPT2
   Ute Becker             : Parallelization
   Giovanni Bistoni       : ED, misc. LED, open-shell LED, HFLD
   Martin Brehm           : Molecular dynamics
   Dmytro Bykov           : SCF Hessian
   Vijay G. Chilkuri      : MRCI spin determinant printing, contributions to CSF-ICE
   Dipayan Datta          : RHF DLPNO-CCSD density
   Achintya Kumar Dutta   : EOM-CC, STEOM-CC
   Dmitry Ganyushin       : Spin-Orbit,Spin-Spin,Magnetic field MRCI
   Miquel Garcia          : C-PCM Hessian, Gaussian charge scheme
   Yang Guo               : DLPNO-NEVPT2, CIM, IAO-localization
   Andreas Hansen         : Spin unrestricted coupled pair/coupled cluster methods
   Benjamin Helmich-Paris : CASSCF linear response (MC-RPA)
   Lee Huntington         : MR-EOM, pCC
   Robert Izsak           : Overlap fitted RIJCOSX, COSX-SCS-MP3, EOM
   Christian Kollmar      : KDIIS, OOCD, Brueckner-CCSD(T), CCSD density
   Simone Kossmann        : Meta GGA functionals, TD-DFT gradient, OOMP2, MP2 Hessian
   Martin Krupicka        : AUTO-CI
   Lucas Lang             : DCDCAS
   Dagmar Lenk            : GEPOL surface, SMD
   Dimitrios Liakos       : Extrapolation schemes; Compound Job, initial MDCI parallelization
   Dimitrios Manganas     : Further ROCIS development; embedding schemes
   Dimitrios Pantazis     : SARC Basis sets
   Taras Petrenko         : DFT Hessian,TD-DFT gradient, ASA, ECA, R-Raman, ABS, FL, XAS/XES, NRVS
   Peter Pinski           : DLPNO-MP2, DLPNO-MP2 Gradient
   Christoph Reimann      : Effective Core Potentials
   Marius Retegan         : Local ZFS, SOC
   Christoph Riplinger    : Optimizer, TS searches, QM/MM, DLPNO-CCSD(T), (RO)-DLPNO pert. Triples
   Tobias Risthaus        : Range-separated hybrids, TD-DFT gradient, RPA, STAB
   Michael Roemelt        : Original ROCIS implementation
   Masaaki Saitow         : Open-shell DLPNO-CCSD energy and density
   Barbara Sandhoefer     : DKH picture change effects
   Avijit Sen             : IP-ROCIS
   Kantharuban Sivalingam : CASSCF convergence, NEVPT2, FIC-MRCI
   Bernardo de Souza      : ESD, SOC TD-DFT
   Georgi Stoychev        : AutoAux, RI-MP2 NMR
   Willem Van den Heuvel  : Paramagnetic NMR
   Boris Wezisla          : Elementary symmetry handling
   Frank Wennmohs         : Technical directorship


 We gratefully acknowledge several colleagues who have allowed us to
 interface, adapt or use parts of their codes:
   Stefan Grimme, W. Hujo, H. Kruse,             : VdW corrections, initial TS optimization,
                  C. Bannwarth                     DFT functionals, gCP, sTDA/sTD-DF
   Ed Valeev, F. Pavosevic, A. Kumar             : LibInt (2-el integral package), F12 methods
   Garnet Chan, S. Sharma, J. Yang, R. Olivares  : DMRG
   Ulf Ekstrom                                   : XCFun DFT Library
   Mihaly Kallay                                 : mrcc  (arbitrary order and MRCC methods)
   Andreas Klamt, Michael Diedenhofen            : otool_cosmo (COSMO solvation model)
   Jiri Pittner, Ondrej Demel                    : Mk-CCSD
   Frank Weinhold                                : gennbo (NPA and NBO analysis)
   Christopher J. Cramer and Donald G. Truhlar   : smd solvation model
   Lars Goerigk                                  : TD-DFT with DH, B97 family of functionals
   V. Asgeirsson, H. Jonsson                     : NEB implementation
   FAccTs GmbH                                   : IRC, NEB, NEB-TS, Multilevel, MM, QM/MM, CI optimization
   S Lehtola, MJT Oliveira, MAL Marques          : LibXC Library


 Your calculation uses the libint2 library for the computation of 2-el integrals
 For citations please refer to: http://libint.valeyev.net

 Your ORCA version has been built with support for libXC version: 4.2.3
 For citations please refer to: https://tddft.org/programs/libxc/

 This ORCA versions uses:
   CBLAS   interface :  Fast vector & matrix operations
   LAPACKE interface :  Fast linear algebra routines
   SCALAPACK package :  Parallel linear algebra routines


----- Orbital basis set information -----
Your calculation utilizes the basis: cc-pCV5Z 
             H : cc-pV5Z. Obtained from the ccRepo (grant-hill.group.shef.ac.uk/ccrepo) Feb. 2017
                 T. H. Dunning, Jr., J. Chem. Phys. 90, 1007 (1989)
            He : cc-pV5Z. Obtained from the ccRepo (grant-hill.group.shef.ac.uk/ccrepo) Feb. 2017
                 D. E. Woon, T. H. Dunning, Jr., J. Chem. Phys. 100, 2975 (1994)
  Li-Be, Na-Mg : Obtained from the ccRepo (grant-hill.group.shef.ac.uk/ccrepo) Feb. 2017
                 B. P. Prascher, D. E. Woon, K. A. Peterson, T. H. Dunning, Jr., A. K. Wilson, Theor. Chem. Acc. 128, 69 (2011)
          B-Ne : Obtained from the ccRepo (grant-hill.group.shef.ac.uk/ccrepo) Feb. 2017
                 D. E. Woon, T. H. Dunning, Jr., J. Chem. Phys. 103, 4572 (1995)
                  K. A. Peterson, T. H. Dunning, Jr., J. Chem. Phys. 117, 10548 (2002)
         Al-Ar : Obtained from the EMSL Basis Set Exchange (bse.pnl.gov) Feb. 2017
                 K. A. Peterson, T. H. Dunning, Jr., J. Chem. Phys. 117, 10548 (2002)
            Ca : Obtained from the Peterson Research Group Website (tyr0.chem.wsu.edu/~kipeters) Feb. 2017
                 J. Koput, K. A. Peterson, J. Phys. Chem. A 106, 9595 (2002)
         Ga-Kr : Obtained from the Peterson Research Group Website (tyr0.chem.wsu.edu/~kipeters) Feb. 2017
                 N. J. DeYonker, K. A. Peterson, A. K. Wilson, J. Phys. Chem. A 111, 11383 (2007)

================================================================================
                                        WARNINGS
                       Please study these warnings very carefully!
================================================================================


INFO   : the flag for use of LIBINT has been found!

================================================================================
                                       INPUT FILE
================================================================================
NAME = Ne_cc-pcv5z_2192.575824_.inp
|  1> ! LDA cc-pcv5z nori grid5 finalgrid6 verytightscf
|  2> %Pal NProcs 18 End
|  3> 
|  4> % REL
|  5>   Method ZORA
|  6>   ModelPot 1, 0, 0, 0
|  7>   velit 2192.575824
|  8> END
|  9> 
| 10> *xyz 8 1
| 11> Ne 0.0 0.0 0.0
| 12> **                         ****END OF INPUT****
================================================================================

                       ****************************
                       * Single Point Calculation *
                       ****************************

---------------------------------
CARTESIAN COORDINATES (ANGSTROEM)
---------------------------------
  Ne     0.000000    0.000000    0.000000

----------------------------
CARTESIAN COORDINATES (A.U.)
----------------------------
  NO LB      ZA    FRAG     MASS         X           Y           Z
   0 Ne   10.0000    0    20.179    0.000000    0.000000    0.000000

--------------------------------
INTERNAL COORDINATES (ANGSTROEM)
--------------------------------
 Ne     0   0   0     0.000000000000     0.00000000     0.00000000

---------------------------
INTERNAL COORDINATES (A.U.)
---------------------------
 Ne     0   0   0     0.000000000000     0.00000000     0.00000000

---------------------
BASIS SET INFORMATION
---------------------
There are 1 groups of distinct atoms

 Group   1 Type Ne  : 28s12p7d5f3g1h contracted to 10s9p7d5f3g1h pattern {101011111111/411111111/1111111/11111/111/1}

Atom   0Ne   basis set group =>   1


           ************************************************************
           *        Program running with 18 parallel MPI-processes    *
           *              working on a common directory               *
           ************************************************************
------------------------------------------------------------------------------
                           ORCA GTO INTEGRAL CALCULATION
------------------------------------------------------------------------------

                         BASIS SET STATISTICS AND STARTUP INFO

 # of primitive gaussian shells          ...   56
 # of primitive gaussian functions       ...  172
 # of contracted shells                  ...   35
 # of contracted basis functions         ...  145
 Highest angular momentum                ...    5
 Maximum contraction depth               ...   10
 Integral package used                   ... LIBINT
 Integral threshhold            Thresh   ...  1.000e-12
 Primitive cut-off              TCut     ...  1.000e-14


------------------------------ INTEGRAL EVALUATION ----------------------------


 * One electron integrals 
 Pre-screening matrix                    ... done
 Shell pair data                         ... done (   0.000 sec)



           ************************************************************
           *        Program running with 18 parallel MPI-processes    *
           *              working on a common directory               *
           ************************************************************
------------------------------------------------------------------------------
                          ORCA RELATIVISTIC HAMILTONIAN
------------------------------------------------------------------------------

Relativistic Method            ... ZORA(MP)
Treatment of potential         ... Van Wuellen
Nucleus model                  ... Point Nucleus
Speed of light used            ... 2192.57582400000001


            *************************************************
            *         ZERO ORDER REGULAR APPROXIMATION      *
            *                     ZORA(MP)                  *
            *            Programmed by FN according to      *
            *                   C. van Wuellen              *
            *       J. Chem. Phys. (1998) vol 109, 392-399  *
            *************************************************

Terms included in model potential: +V(e,N)
Basis function cutoff value   ... 1.000000e-12
Loading the fitted atomic densities  (DKH4)  ... done
Calculating the cutoffs                      ... done
Number of fit functions                      ... 11
Setting up the integration grid ... done


           ************************************************************
           *        Program running with 18 parallel MPI-processes    *
           *              working on a common directory               *
           ************************************************************
-------------------------------------------------------------------------------
                                 ORCA SCF
-------------------------------------------------------------------------------

------------
SCF SETTINGS
------------
Hamiltonian:
 Density Functional     Method          .... DFT(GTOs)
 Exchange Functional    Exchange        .... Slater
   X-Alpha parameter    XAlpha          ....  0.666667
 Correlation Functional Correlation     .... VWN-5
 Gradients option       PostSCFGGA      .... off
   Density functional embedding theory  .... OFF

Relativistic Settings:
 Scalar relativistic method             .... ZORA
 Speed of light used       Velit        ....       2192.57582
Orbital energies will be scaled


General Settings:
 Integral files         IntName         .... Ne_cc-pcv5z_2192.575824_
 Hartree-Fock type      HFTyp           .... RHF
 Total Charge           Charge          ....    8
 Multiplicity           Mult            ....    1
 Number of Electrons    NEL             ....    2
 Basis Dimension        Dim             ....  145
 Nuclear Repulsion      ENuc            ....      0.0000000000 Eh

Convergence Acceleration:
 DIIS                   CNVDIIS         .... on
   Start iteration      DIISMaxIt       ....    12
   Startup error        DIISStart       ....  0.200000
   # of expansion vecs  DIISMaxEq       ....     5
   Bias factor          DIISBfac        ....   1.050
   Max. coefficient     DIISMaxC        ....  10.000
 Newton-Raphson         CNVNR           .... off
 SOSCF                  CNVSOSCF        .... on
   Start iteration      SOSCFMaxIt      ....   150
   Startup grad/error   SOSCFStart      ....  0.003300
 Level Shifting         CNVShift        .... on
   Level shift para.    LevelShift      ....    0.2500
   Turn off err/grad.   ShiftErr        ....    0.0010
 Zerner damping         CNVZerner       .... off
 Static damping         CNVDamp         .... on
   Fraction old density DampFac         ....    0.7000
   Max. Damping (<1)    DampMax         ....    0.9800
   Min. Damping (>=0)   DampMin         ....    0.0000
   Turn off err/grad.   DampErr         ....    0.1000
 Fernandez-Rico         CNVRico         .... off

SCF Procedure:
 Maximum # iterations   MaxIter         ....   125
 SCF integral mode      SCFMode         .... Direct
   Integral package                     .... LIBINT
 Reset frequency        DirectResetFreq ....    20
 Integral Threshold     Thresh          ....  1.000e-12 Eh
 Primitive CutOff       TCut            ....  1.000e-14 Eh

Convergence Tolerance:
 Convergence Check Mode ConvCheckMode   .... Total+1el-Energy
 Convergence forced     ConvForced      .... 0
 Energy Change          TolE            ....  1.000e-09 Eh
 1-El. energy change                    ....  1.000e-06 Eh
 Orbital Gradient       TolG            ....  2.000e-06
 Orbital Rotation angle TolX            ....  2.000e-06
 DIIS Error             TolErr          ....  1.000e-08


Diagonalization of the overlap matrix:
Smallest eigenvalue                        ... 2.075e-05
Time for diagonalization                   ...    0.003 sec
Threshold for overlap eigenvalues          ... 1.000e-08
Number of eigenvalues below threshold      ... 0
Time for construction of square roots      ...    0.003 sec
Total time needed                          ...    0.006 sec

-------------------
DFT GRID GENERATION
-------------------

General Integration Accuracy     IntAcc      ...  5.010
Radial Grid Type                 RadialGrid  ... Gauss-Chebyshev
Angular Grid (max. acc.)         AngularGrid ... Lebedev-434
Angular grid pruning method      GridPruning ... 3 (G Style)
Weight generation scheme         WeightScheme... Becke
Basis function cutoff            BFCut       ...    1.0000e-12
Integration weight cutoff        WCut        ...    1.0000e-14
Grids for H and He will be reduced by one unit

# of grid points (after initial pruning)     ...  10818 (   0.0 sec)
# of grid points (after weights+screening)   ...  10818 (   0.0 sec)
Grid point division into batches done        ...    0.1 sec
Reduced shell lists constructed in    0.1 sec

Total number of grid points                  ...    10818
Total number of batches                      ...      170
Average number of points per batch           ...       63
Average number of grid points per atom       ...    10818
Average number of shells per batch           ...     0.00 ( 0.00%)
Average number of basis functions per batch  ...     0.00 ( 0.00%)
Average number of large shells per batch     ...     0.00 ( -nan%)
Average number of large basis fcns per batch ...     0.00 ( -nan%)
Maximum spatial batch extension              ...  16.29, 16.29, 16.29 au
Average spatial batch extension              ...   0.85,  0.86,  0.85 au

Time for grid setup =    0.130 sec

------------------------------
INITIAL GUESS: MODEL POTENTIAL
------------------------------
Loading ZORA relativistic densities                ... done
Calculating cut-offs                               ... done
Setting up the integral package                    ... done
Initializing the effective Hamiltonian             ... done
Starting the Coulomb interaction                   ... done (   0.0 sec)
Reading the grid                                   ... done
Mapping shells                                     ... done
Starting the XC term evaluation                    ... done (   0.0 sec)
  promolecular density results
     # of electrons  =     10.000000334
     EX              =    -11.053709298
     EC              =     -0.746638772
     EX+EC           =    -11.800348070
Transforming the Hamiltonian                       ... done (   0.0 sec)
Diagonalizing the Hamiltonian                      ... done (   0.0 sec)
Back transforming the eigenvectors                 ... done (   0.0 sec)
Now organizing SCF variables                       ... done
                      ------------------
                      INITIAL GUESS DONE (   0.2 sec)
                      ------------------
--------------
SCF ITERATIONS
--------------
ITER       Energy         Delta-E        Max-DP      RMS-DP      [F,P]     Damp
               ***  Starting incremental Fock matrix formation  ***
  0    -93.2009675195   0.000000000000 0.02204982  0.00017311  0.9065572 0.7000
  1    -93.2048836784  -0.003916158937 0.01472947  0.00011598  0.6236670 0.7000
  2    -93.2075664436  -0.002682765236 0.00980064  0.00007742  0.4278435 0.7000
                      *** Initiating the SOSCF procedure ***
                      *** Re-Reading the Fockian *** 
                      *** Removing any level shift *** 
ITER      Energy       Delta-E        Grad      Rot      Max-DP    RMS-DP
  3    -93.20941702  -0.0018505723  0.002619  0.002619  0.021705  0.000172
               *** Restarting incremental Fock matrix formation ***
  4    -93.21365232  -0.0042353034  0.005969  0.000113  0.002652  0.000021
  5    -93.21365538  -0.0000030618  0.000324  0.000006  0.000137  0.000001
                  ***Gradient check signals convergence***
              ***Rediagonalizing the Fockian in SOSCF/NRSCF***

               *****************************************************
               *                     SUCCESS                       *
               *           SCF CONVERGED AFTER   6 CYCLES          *
               *****************************************************

Setting up the final grid:

General Integration Accuracy     IntAcc      ...  5.340
Radial Grid Type                 RadialGrid  ... Gauss-Chebyshev
Angular Grid (max. acc.)         AngularGrid ... Lebedev-590
Angular grid pruning method      GridPruning ... 3 (G Style)
Weight generation scheme         WeightScheme... Becke
Basis function cutoff            BFCut       ...    1.0000e-12
Integration weight cutoff        WCut        ...    1.0000e-14
Grids for H and He will be reduced by one unit

# of grid points (after initial pruning)     ...  16840 (   0.0 sec)
# of grid points (after weights+screening)   ...  16840 (   0.0 sec)
Grid point division into batches done        ...    0.2 sec
Reduced shell lists constructed in    0.2 sec

Total number of grid points                  ...    16840
Total number of batches                      ...      264
Average number of points per batch           ...       63
Average number of grid points per atom       ...    16840
Average number of shells per batch           ...     0.00 ( 0.00%)
Average number of basis functions per batch  ...     0.00 ( 0.00%)
Average number of large shells per batch     ...     0.00 ( -nan%)
Average number of large basis fcns per batch ...     0.00 ( -nan%)
Maximum spatial batch extension              ...  16.63, 16.63, 16.63 au
Average spatial batch extension              ...   0.74,  0.74,  0.69 au

Final grid set up in    0.2 sec
Final integration                            ... done (   0.0 sec)
Change in XC energy                          ...     0.000000097
Integrated number of electrons               ...     1.999999999
Previous integrated no of electrons          ...     2.000000014

----------------
TOTAL SCF ENERGY
----------------

Total Energy       :          -93.21365529 Eh           -2536.47251 eV

Components:
Nuclear Repulsion  :            0.00000000 Eh               0.00000 eV
Electronic Energy  :          -93.21365529 Eh           -2536.47251 eV
One Electron Energy:          -99.85374845 Eh           -2717.15863 eV
Two Electron Energy:            6.64009316 Eh             180.68612 eV

Virial components:
Potential Energy   :         -186.28068145 Eh           -5068.95504 eV
Kinetic Energy     :           93.06702615 Eh            2532.48253 eV
Virial Ratio       :            2.00157552


DFT components:
N(Alpha)           :        0.999999999302 electrons
N(Beta)            :        0.999999999302 electrons
N(Total)           :        1.999999998605 electrons
E(X)               :       -5.146139270897 Eh       
E(C)               :       -0.202680747841 Eh       
E(XC)              :       -5.348820018738 Eh       
DFET-embed. en.    :        0.000000000000 Eh       

---------------
SCF CONVERGENCE
---------------

  Last Energy change         ...   -9.4391e-09  Tolerance :   1.0000e-09
  Last MAX-Density change    ...    7.9434e-09  Tolerance :   1.0000e-08
  Last RMS-Density change    ...    8.3231e-11  Tolerance :   1.0000e-09
  Last Orbital Gradient      ...    5.8992e-08  Tolerance :   2.0000e-06
  Last Orbital Rotation      ...    3.7802e-10  Tolerance :   2.0000e-06

             **** THE GBW FILE WAS UPDATED (Ne_cc-pcv5z_2192.575824_.gbw) ****
             **** DENSITY FILE WAS UPDATED (Ne_cc-pcv5z_2192.575824_.scfp) ****
             **** ENERGY FILE WAS UPDATED (Ne_cc-pcv5z_2192.575824_.en.tmp) ****
             **** THE GBW FILE WAS UPDATED (Ne_cc-pcv5z_2192.575824_.gbw) ****
             **** DENSITY FILE WAS UPDATED (Ne_cc-pcv5z_2192.575824_.scfp) ****
----------------
ORBITAL ENERGIES
----------------

  NO   OCC          E(Eh)            E(eV) 
   0   2.0000     -41.479267     -1128.7082 
   1   0.0000      -9.049536      -246.2504 
   2   0.0000      -8.614339      -234.4081 
   3   0.0000      -8.614339      -234.4081 
   4   0.0000      -8.614339      -234.4081 
   5   0.0000      -3.831233      -104.2531 
   6   0.0000      -3.703067      -100.7656 
   7   0.0000      -3.703067      -100.7656 
   8   0.0000      -3.703067      -100.7656 
   9   0.0000      -3.599329       -97.9427 
  10   0.0000      -3.599329       -97.9427 
  11   0.0000      -3.599329       -97.9427 
  12   0.0000      -3.599329       -97.9427 
  13   0.0000      -3.599329       -97.9427 
  14   0.0000      -2.054823       -55.9146 
  15   0.0000      -2.054823       -55.9146 
  16   0.0000      -2.054823       -55.9146 
  17   0.0000      -1.711734       -46.5786 
  18   0.0000      -1.325888       -36.0792 
  19   0.0000      -1.325888       -36.0792 
  20   0.0000      -1.325888       -36.0792 
  21   0.0000      -1.325888       -36.0792 
  22   0.0000      -1.325888       -36.0792 
  23   0.0000      -1.268191       -34.5092 
  24   0.0000      -1.268191       -34.5092 
  25   0.0000      -1.268191       -34.5092 
  26   0.0000      -1.268191       -34.5092 
  27   0.0000      -1.268191       -34.5092 
  28   0.0000      -1.268191       -34.5092 
  29   0.0000      -1.268191       -34.5092 
  30   0.0000       0.133411         3.6303 
  31   0.0000       0.133411         3.6303 
  32   0.0000       0.133411         3.6303 
  33   0.0000       3.129423        85.1559 
  34   0.0000       3.129423        85.1559 
  35   0.0000       3.129423        85.1559 
  36   0.0000       3.129423        85.1559 
  37   0.0000       3.129423        85.1559 
  38   0.0000       3.129423        85.1559 
  39   0.0000       3.129423        85.1559 
  40   0.0000       3.129423        85.1559 
  41   0.0000       3.129423        85.1559 
  42   0.0000       4.723873       128.5431 
  43   0.0000       4.723873       128.5431 
  44   0.0000       4.723873       128.5431 
  45   0.0000       4.723873       128.5431 
  46   0.0000       4.723873       128.5431 
  47   0.0000       4.723873       128.5431 
  48   0.0000       4.723873       128.5431 
  49   0.0000       4.913755       133.7101 
  50   0.0000       4.913755       133.7101 
  51   0.0000       4.913755       133.7101 
  52   0.0000       4.913755       133.7101 
  53   0.0000       4.913755       133.7101 
  54   0.0000       5.445394       148.1767 
  55   0.0000      10.611072       288.7419 
  56   0.0000      10.611072       288.7419 
  57   0.0000      10.611072       288.7419 
  58   0.0000      15.315771       416.7633 
  59   0.0000      15.315771       416.7633 
  60   0.0000      15.315771       416.7633 
  61   0.0000      15.315771       416.7633 
  62   0.0000      15.315771       416.7633 
  63   0.0000      15.315771       416.7633 
  64   0.0000      15.315771       416.7633 
  65   0.0000      15.315771       416.7633 
  66   0.0000      15.315771       416.7633 
  67   0.0000      15.315771       416.7633 
  68   0.0000      15.315771       416.7633 
  69   0.0000      20.750256       564.6432 
  70   0.0000      20.750256       564.6432 
  71   0.0000      20.750256       564.6432 
  72   0.0000      20.750256       564.6432 
  73   0.0000      20.750256       564.6432 
  74   0.0000      20.750256       564.6432 
  75   0.0000      20.750256       564.6432 
  76   0.0000      20.750256       564.6432 
  77   0.0000      20.750256       564.6432 
  78   0.0000      23.197239       631.2290 
  79   0.0000      23.197239       631.2290 
  80   0.0000      23.197239       631.2290 
  81   0.0000      23.197239       631.2290 
  82   0.0000      23.197239       631.2290 
  83   0.0000      23.197239       631.2290 
  84   0.0000      23.197239       631.2290 
  85   0.0000      24.926043       678.2721 
  86   0.0000      24.926043       678.2721 
  87   0.0000      24.926043       678.2721 
  88   0.0000      24.926043       678.2721 
  89   0.0000      24.926043       678.2721 
  90   0.0000      32.243638       877.3940 
  91   0.0000      45.703085      1243.6442 
  92   0.0000      45.703085      1243.6442 
  93   0.0000      45.703085      1243.6442 
  94   0.0000      86.881168      2364.1568 
  95   0.0000      86.881168      2364.1568 
  96   0.0000      86.881168      2364.1568 
  97   0.0000      86.881168      2364.1568 
  98   0.0000      86.881168      2364.1568 
  99   0.0000     104.982440      2856.7174 
 100   0.0000     104.982440      2856.7174 
 101   0.0000     104.982440      2856.7174 
 102   0.0000     104.982440      2856.7174 
 103   0.0000     104.982440      2856.7174 
 104   0.0000     104.982440      2856.7174 
 105   0.0000     104.982440      2856.7174 
 106   0.0000     110.803808      3015.1249 
 107   0.0000     148.249494      4034.0738 
 108   0.0000     148.249494      4034.0738 
 109   0.0000     148.249494      4034.0738 
 110   0.0000     180.710423      4917.3806 
 111   0.0000     180.710423      4917.3806 
 112   0.0000     180.710423      4917.3806 
 113   0.0000     180.710423      4917.3806 
 114   0.0000     180.710423      4917.3806 
 115   0.0000     180.710423      4917.3806 
 116   0.0000     180.710423      4917.3806 
 117   0.0000     180.710423      4917.3806 
 118   0.0000     180.710423      4917.3806 
 119   0.0000     277.040326      7538.6505 
 120   0.0000     277.040326      7538.6505 
 121   0.0000     277.040326      7538.6505 
 122   0.0000     277.040326      7538.6505 
 123   0.0000     277.040326      7538.6505 
 124   0.0000     316.263031      8605.9546 
 125   0.0000     434.914958     11834.6377 
 126   0.0000     434.914958     11834.6377 
 127   0.0000     434.914958     11834.6377 
 128   0.0000     444.046128     12083.1094 
 129   0.0000     444.046128     12083.1094 
 130   0.0000     444.046128     12083.1094 
 131   0.0000     444.046128     12083.1094 
 132   0.0000     444.046128     12083.1094 
 133   0.0000     444.046128     12083.1094 
 134   0.0000     444.046128     12083.1094 
 135   0.0000     851.882254     23180.8946 
 136   0.0000     869.229100     23652.9263 
 137   0.0000     869.229100     23652.9263 
 138   0.0000     869.229100     23652.9263 
 139   0.0000     869.229100     23652.9263 
 140   0.0000     869.229100     23652.9263 
 141   0.0000    1246.476842     33918.3593 
 142   0.0000    1246.476842     33918.3593 
 143   0.0000    1246.476842     33918.3593 
 144   0.0000    3035.388283     82597.1143 

                    ********************************
                    * MULLIKEN POPULATION ANALYSIS *
                    ********************************

-----------------------
MULLIKEN ATOMIC CHARGES
-----------------------
   0 Ne:    8.000000
Sum of atomic charges:    8.0000000

--------------------------------
MULLIKEN REDUCED ORBITAL CHARGES
--------------------------------
  0 Nes       :     2.000000  s :     2.000000
      pz      :     0.000000  p :     0.000000
      px      :     0.000000
      py      :     0.000000
      dz2     :     0.000000  d :     0.000000
      dxz     :     0.000000
      dyz     :     0.000000
      dx2y2   :     0.000000
      dxy     :     0.000000
      f0      :     0.000000  f :     0.000000
      f+1     :     0.000000
      f-1     :     0.000000
      f+2     :     0.000000
      f-2     :     0.000000
      f+3     :     0.000000
      f-3     :     0.000000
      g0      :     0.000000  g :     0.000000
      g+1     :     0.000000
      g-1     :     0.000000
      g+2     :     0.000000
      g-2     :     0.000000
      g+3     :     0.000000
      g-3     :     0.000000
      g+4     :     0.000000
      g-4     :     0.000000
      h0      :     0.000000  h :     0.000000
      h+1     :     0.000000
      h-1     :     0.000000
      h+2     :     0.000000
      h-2     :     0.000000
      h+3     :     0.000000
      h-3     :     0.000000
      h+4     :     0.000000
      h-4     :     0.000000
      h+5     :     0.000000
      h-5     :     0.000000


                     *******************************
                     * LOEWDIN POPULATION ANALYSIS *
                     *******************************

----------------------
LOEWDIN ATOMIC CHARGES
----------------------
   0 Ne:    8.000000

-------------------------------
LOEWDIN REDUCED ORBITAL CHARGES
-------------------------------
  0 Nes       :     2.000000  s :     2.000000
      pz      :     0.000000  p :     0.000000
      px      :     0.000000
      py      :     0.000000
      dz2     :     0.000000  d :     0.000000
      dxz     :     0.000000
      dyz     :     0.000000
      dx2y2   :     0.000000
      dxy     :     0.000000
      f0      :     0.000000  f :     0.000000
      f+1     :     0.000000
      f-1     :     0.000000
      f+2     :     0.000000
      f-2     :     0.000000
      f+3     :     0.000000
      f-3     :     0.000000
      g0      :     0.000000  g :     0.000000
      g+1     :     0.000000
      g-1     :     0.000000
      g+2     :     0.000000
      g-2     :     0.000000
      g+3     :     0.000000
      g-3     :     0.000000
      g+4     :     0.000000
      g-4     :     0.000000
      h0      :     0.000000  h :     0.000000
      h+1     :     0.000000
      h-1     :     0.000000
      h+2     :     0.000000
      h-2     :     0.000000
      h+3     :     0.000000
      h-3     :     0.000000
      h+4     :     0.000000
      h-4     :     0.000000
      h+5     :     0.000000
      h-5     :     0.000000


                      *****************************
                      * MAYER POPULATION ANALYSIS *
                      *****************************

  NA   - Mulliken gross atomic population
  ZA   - Total nuclear charge
  QA   - Mulliken gross atomic charge
  VA   - Mayer's total valence
  BVA  - Mayer's bonded valence
  FA   - Mayer's free valence

  ATOM       NA         ZA         QA         VA         BVA        FA
  0 Ne     2.0000    10.0000     8.0000     0.0000     0.0000     0.0000

  Mayer bond orders larger than 0.100000


--------------------------
ATOM BASIS FOR ELEMENT Ne
--------------------------
 NewGTO Ne
 S 28
    1     262700.000000000000         0.000025892098
    2      39350.000000000000         0.000199169988
    3       8955.000000000000         0.001045642439
    4       2538.000000000000         0.004381739745
    5        829.900000000000         0.015584055742
    6        301.500000000000         0.047559801530
    7        119.000000000000         0.122432779420
    8         50.000000000000         0.251435180908
    9         21.980000000000         0.364793775657
   10          9.891000000000         0.278456573234
   11     262700.000000000000         0.000000216111
   12      39350.000000000000         0.000001692873
   13       8955.000000000000         0.000008896586
   14       2538.000000000000         0.000037387273
   15        829.900000000000         0.000133664905
   16        301.500000000000         0.000417563257
   17        119.000000000000         0.001119673201
   18         50.000000000000         0.002556309799
   19         21.980000000000         0.004583939058
   20          9.891000000000         0.005447124037
   21          4.327000000000         0.055663078545
   22          1.804000000000        -0.002104213767
   23          0.728800000000         0.000788620488
   24          0.286700000000        -0.000192220068
   25         24.313000000000        -0.001883831300
   26         54.680000000000        -0.001471021882
   27        122.975000000000        -0.000080819671
   28        276.571000000000         0.000078263445
 S 28
    1     262700.000000000000        -0.000001181479
    2      39350.000000000000        -0.000009088297
    3       8955.000000000000        -0.000047713561
    4       2538.000000000000        -0.000199942543
    5        829.900000000000        -0.000711113830
    6        301.500000000000        -0.002170194536
    7        119.000000000000        -0.005586712736
    8         50.000000000000        -0.011473202961
    9         21.980000000000        -0.016645852867
   10          9.891000000000        -0.012706212269
   11     262700.000000000000         0.000009521512
   12      39350.000000000000         0.000074585180
   13       8955.000000000000         0.000391968927
   14       2538.000000000000         0.001647221646
   15        829.900000000000         0.005889055422
   16        301.500000000000         0.018397148882
   17        119.000000000000         0.049330955763
   18         50.000000000000         0.112626796385
   19         21.980000000000         0.201960799592
   20          9.891000000000         0.239991307051
   21          4.327000000000        -0.167402155986
   22          1.804000000000        -0.801167404913
   23          0.728800000000        -0.228157111190
   24          0.286700000000         0.011992525827
   25         24.313000000000         0.000848120456
   26         54.680000000000         0.000861865323
   27        122.975000000000        -0.000122270089
   28        276.571000000000         0.000096760266
 S 28
    1     262700.000000000000         0.000000001108
    2      39350.000000000000         0.000000008526
    3       8955.000000000000         0.000000044762
    4       2538.000000000000         0.000000187575
    5        829.900000000000         0.000000667127
    6        301.500000000000         0.000002035956
    7        119.000000000000         0.000005241143
    8         50.000000000000         0.000010763520
    9         21.980000000000         0.000015616211
   10          9.891000000000         0.000011920260
   11     262700.000000000000        -0.000004423497
   12      39350.000000000000        -0.000034650725
   13       8955.000000000000        -0.000182100618
   14       2538.000000000000        -0.000765264945
   15        829.900000000000        -0.002735932767
   16        301.500000000000        -0.008546933054
   17        119.000000000000        -0.022918136886
   18         50.000000000000        -0.052324069068
   19         21.980000000000        -0.093826790482
   20          9.891000000000        -0.111494973923
   21          4.327000000000         0.059125360851
   22          1.804000000000         1.137991832323
   23          0.728800000000        -0.542629166212
   24          0.286700000000        -0.927292452463
   25         24.313000000000        -0.022522635708
   26         54.680000000000         0.002982331296
   27        122.975000000000        -0.001964284335
   28        276.571000000000         0.000416745569
 S 28
    1     262700.000000000000        -0.000011989678
    2      39350.000000000000        -0.000092228296
    3       8955.000000000000        -0.000484198555
    4       2538.000000000000        -0.002029022515
    5        829.900000000000        -0.007216403031
    6        301.500000000000        -0.022023194833
    7        119.000000000000        -0.056694117057
    8         50.000000000000        -0.116430384461
    9         21.980000000000        -0.168922580346
   10          9.891000000000        -0.128942997397
   11     262700.000000000000         0.000006864581
   12      39350.000000000000         0.000053772551
   13       8955.000000000000         0.000282591917
   14       2538.000000000000         0.001187572508
   15        829.900000000000         0.004245743331
   16        301.500000000000         0.013263514535
   17        119.000000000000         0.035565394016
   18         50.000000000000         0.081198840123
   19         21.980000000000         0.145604626996
   20          9.891000000000         0.173022907494
   21          4.327000000000        -0.372344593335
   22          1.804000000000         2.789092242937
   23          0.728800000000        -4.375984207836
   24          0.286700000000         2.409616188396
   25         24.313000000000        -0.165798959109
   26         54.680000000000         0.018018615476
   27        122.975000000000        -0.014654013001
   28        276.571000000000         0.002861393640
 S 28
    1     262700.000000000000        -0.000142949810
    2      39350.000000000000        -0.001099613923
    3       8955.000000000000        -0.005772973096
    4       2538.000000000000        -0.024191506308
    5        829.900000000000        -0.086039291413
    6        301.500000000000        -0.262576808698
    7        119.000000000000        -0.675949172742
    8         50.000000000000        -1.388169110738
    9         21.980000000000        -2.014019873143
   10          9.891000000000        -1.537353731686
   11     262700.000000000000         0.000146889930
   12      39350.000000000000         0.001150637785
   13       8955.000000000000         0.006046968783
   14       2538.000000000000         0.025411957881
   15        829.900000000000         0.090851421672
   16        301.500000000000         0.283815826312
   17        119.000000000000         0.761036727053
   18         50.000000000000         1.737512018027
   19         21.980000000000         3.115682304094
   20          9.891000000000         3.702385165956
   21          4.327000000000        -6.026461064999
   22          1.804000000000         6.683920447398
   23          0.728800000000        -3.999024719906
   24          0.286700000000         1.211705522594
   25         24.313000000000        -1.452898778935
   26         54.680000000000         0.109199864936
   27        122.975000000000        -0.121890699015
   28        276.571000000000         0.020671230961
 S 28
    1     262700.000000000000        -0.000562305978
    2      39350.000000000000        -0.004325430602
    3       8955.000000000000        -0.022708510658
    4       2538.000000000000        -0.095159473233
    5        829.900000000000        -0.338443317416
    6        301.500000000000        -1.032869573336
    7        119.000000000000        -2.658907072210
    8         50.000000000000        -5.460488472812
    9         21.980000000000        -7.922328926817
   10          9.891000000000        -6.047319642519
   11     262700.000000000000         0.000520878470
   12      39350.000000000000         0.004080214684
   13       8955.000000000000         0.021442830363
   14       2538.000000000000         0.090111975372
   15        829.900000000000         0.322163333916
   16        301.500000000000         1.006424017809
   17        119.000000000000         2.698671354923
   18         50.000000000000         6.161297799703
   19         21.980000000000        11.048353234755
   20          9.891000000000        13.128828658441
   21          4.327000000000        -7.318948008445
   22          1.804000000000         4.497145774776
   23          0.728800000000        -2.005086087491
   24          0.286700000000         0.544383722957
   25         24.313000000000        -6.739775815642
   26         54.680000000000         0.411344885999
   27        122.975000000000        -0.509347933705
   28        276.571000000000         0.077947063959
 S 28
    1     262700.000000000000         0.000489865137
    2      39350.000000000000         0.003768193360
    3       8955.000000000000         0.019783015141
    4       2538.000000000000         0.082900253923
    5        829.900000000000         0.294842289462
    6        301.500000000000         0.899806892462
    7        119.000000000000         2.316364981364
    8         50.000000000000         4.757023820711
    9         21.980000000000         6.901709912588
   10          9.891000000000         5.268254613878
   11     262700.000000000000        -0.000479768121
   12      39350.000000000000        -0.003758183618
   13       8955.000000000000        -0.019750454334
   14       2538.000000000000        -0.082999885016
   15        829.900000000000        -0.296736583136
   16        301.500000000000        -0.926991972054
   17        119.000000000000        -2.485678637391
   18         50.000000000000        -5.675017186288
   19         21.980000000000       -10.176361624727
   20          9.891000000000       -12.092635463274
   21          4.327000000000         4.723380873065
   22          1.804000000000        -2.454681028150
   23          0.728800000000         1.047053364873
   24          0.286700000000        -0.283131863230
   25         24.313000000000        11.266197452516
   26         54.680000000000        -4.304435732665
   27        122.975000000000         1.276054430243
   28        276.571000000000        -0.336441598683
 S 28
    1     262700.000000000000        -0.000570163108
    2      39350.000000000000        -0.004385870059
    3       8955.000000000000        -0.023025817812
    4       2538.000000000000        -0.096489141306
    5        829.900000000000        -0.343172402795
    6        301.500000000000        -1.047301911477
    7        119.000000000000        -2.696060113546
    8         50.000000000000        -5.536788151000
    9         21.980000000000        -8.033028024641
   10          9.891000000000        -6.131819141955
   11     262700.000000000000         0.000421694665
   12      39350.000000000000         0.003303274879
   13       8955.000000000000         0.017359763724
   14       2538.000000000000         0.072953177107
   15        829.900000000000         0.260818150525
   16        301.500000000000         0.814784375920
   17        119.000000000000         2.184800061230
   18         50.000000000000         4.988085631654
   19         21.980000000000         8.944565546949
   20          9.891000000000        10.628884322841
   21          4.327000000000        -2.764445019011
   22          1.804000000000         1.401270708923
   23          0.728800000000        -0.598925583870
   24          0.286700000000         0.162757139388
   25         24.313000000000        -8.036076569551
   26         54.680000000000         9.078386556833
   27        122.975000000000        -4.580800975117
   28        276.571000000000         1.011318501207
 S 28
    1     262700.000000000000        -0.000422726830
    2      39350.000000000000        -0.003251744847
    3       8955.000000000000        -0.017071660449
    4       2538.000000000000        -0.071538386644
    5        829.900000000000        -0.254432775589
    6        301.500000000000        -0.776484152124
    7        119.000000000000        -1.998896333903
    8         50.000000000000        -4.105051471600
    9         21.980000000000        -5.955798310253
   10          9.891000000000        -4.546215695054
   11     262700.000000000000         0.000286330534
   12      39350.000000000000         0.002242922513
   13       8955.000000000000         0.011787273632
   14       2538.000000000000         0.049535182307
   15        829.900000000000         0.177095435012
   16        301.500000000000         0.553238312608
   17        119.000000000000         1.483478494413
   18         50.000000000000         3.386908438059
   19         21.980000000000         6.073356947501
   20          9.891000000000         7.217008820325
   21          4.327000000000        -1.616687162808
   22          1.804000000000         0.823679508724
   23          0.728800000000        -0.354255545855
   24          0.286700000000         0.096632047226
   25         24.313000000000        -4.656980712558
   26         54.680000000000         7.787125045931
   27        122.975000000000        -7.100619750435
   28        276.571000000000         4.175393289331
 S 28
    1     262700.000000000000         0.004571266571
    2      39350.000000000000         0.035163589010
    3       8955.000000000000         0.184608842305
    4       2538.000000000000         0.773598958229
    5        829.900000000000         2.751375022121
    6        301.500000000000         8.396713419800
    7        119.000000000000        21.615585618545
    8         50.000000000000        44.391042220599
    9         21.980000000000        64.404574723829
   10          9.891000000000        49.161686341644
   11     262700.000000000000        -0.002077940798
   12      39350.000000000000        -0.016277202921
   13       8955.000000000000        -0.085541896203
   14       2538.000000000000        -0.359483758134
   15        829.900000000000        -1.285206383849
   16        301.500000000000        -4.014927946095
   17        119.000000000000       -10.765811276831
   18         50.000000000000       -24.579269058072
   19         21.980000000000       -44.075202276174
   20          9.891000000000       -52.374844148697
   21          4.327000000000         1.580641240944
   22          1.804000000000        -0.762932704698
   23          0.728800000000         0.322647880727
   24          0.286700000000        -0.087516422486
   25         24.313000000000       -19.569096033078
   26         54.680000000000       -21.927436976702
   27        122.975000000000        -4.265399666879
   28        276.571000000000        -8.863888446401
 P 12
    1        299.100000000000         0.002063411586
    2         70.730000000000         0.016648431632
    3         22.480000000000         0.078904620512
    4          8.246000000000         0.254558992374
    5          3.269000000000         0.500596798461
    6          1.315000000000         0.313741413758
    7          0.515800000000         0.006421191677
    8          0.191800000000         0.002334861459
    9         21.309000000000        -0.002352129116
   10         53.720000000000        -0.002045314772
   11        135.428000000000        -0.000232279627
   12        341.414000000000        -0.000166417364
 P 12
    1        299.100000000000         0.001270524460
    2         70.730000000000         0.010251100534
    3         22.480000000000         0.048584708479
    4          8.246000000000         0.156742081198
    5          3.269000000000         0.374124098143
    6          1.315000000000        -0.060742192684
    7          0.515800000000        -0.921805155008
    8          0.191800000000        -0.099371676624
    9         21.309000000000        -0.001027632829
   10         53.720000000000        -0.002523364271
   11        135.428000000000        -0.000119932386
   12        341.414000000000        -0.000193946250
 P 12
    1        299.100000000000         0.000847450586
    2         70.730000000000         0.006837570959
    3         22.480000000000         0.032406412428
    4          8.246000000000         0.104548296927
    5          3.269000000000         0.289027473935
    6          1.315000000000        -0.201649443235
    7          0.515800000000        -1.064899664273
    8          0.191800000000         1.452443147398
    9         21.309000000000         0.001485911872
   10         53.720000000000        -0.002110003988
   11        135.428000000000         0.000078049010
   12        341.414000000000        -0.000158643796
 P 12
    1        299.100000000000         0.000650144271
    2         70.730000000000         0.005245624535
    3         22.480000000000         0.024861441753
    4          8.246000000000         0.080207008417
    5          3.269000000000         1.228682568579
    6          1.315000000000        -2.873247067742
    7          0.515800000000         2.573115133856
    8          0.191800000000        -1.061704999326
    9         21.309000000000         0.095118408421
   10         53.720000000000        -0.009099132250
   11        135.428000000000         0.006951720109
   12        341.414000000000        -0.000600883040
 P 12
    1        299.100000000000        -0.016712393232
    2         70.730000000000        -0.134842286434
    3         22.480000000000        -0.639079985127
    4          8.246000000000        -2.061774785866
    5          3.269000000000         3.250897016732
    6          1.315000000000        -2.508643290759
    7          0.515800000000         1.246513012841
    8          0.191800000000        -0.380734308390
    9         21.309000000000         0.788272739848
   10         53.720000000000         0.015847240881
   11        135.428000000000         0.054811120935
   12        341.414000000000         0.001776845808
 P 12
    1        299.100000000000        -0.024778086059
    2         70.730000000000        -0.199919528653
    3         22.480000000000        -0.947511146369
    4          8.246000000000        -3.056823302835
    5          3.269000000000         2.244962438986
    6          1.315000000000        -1.258117013415
    7          0.515800000000         0.563154189832
    8          0.191800000000        -0.168204341801
    9         21.309000000000         3.222022322264
   10         53.720000000000        -0.145405699309
   11        135.428000000000         0.189547217404
   12        341.414000000000        -0.006002745945
 P 12
    1        299.100000000000         0.016289243043
    2         70.730000000000         0.131428141126
    3         22.480000000000         0.622898770830
    4          8.246000000000         2.009571586864
    5          3.269000000000        -1.184870616725
    6          1.315000000000         0.632259801288
    7          0.515800000000        -0.282695094013
    8          0.191800000000         0.084869812986
    9         21.309000000000        -3.485812666939
   10         53.720000000000         2.313178090906
   11        135.428000000000        -0.469772455740
   12        341.414000000000         0.096751189258
 P 12
    1        299.100000000000        -0.008819683486
    2         70.730000000000        -0.071160741034
    3         22.480000000000        -0.337263676881
    4          8.246000000000        -1.088066848227
    5          3.269000000000         0.624114389311
    6          1.315000000000        -0.335142559967
    7          0.515800000000         0.151010891438
    8          0.191800000000        -0.045529614962
    9         21.309000000000         2.196185466295
   10         53.720000000000        -2.698579677498
   11        135.428000000000         2.386306992844
   12        341.414000000000        -0.299464354303
 P 12
    1        299.100000000000         0.004654345434
    2         70.730000000000         0.037553124288
    3         22.480000000000         0.177981631326
    4          8.246000000000         0.574197359260
    5          3.269000000000        -0.332748044065
    6          1.315000000000         0.180290975189
    7          0.515800000000        -0.081638328072
    8          0.191800000000         0.024668579707
    9         21.309000000000        -1.176700783988
   10         53.720000000000         1.691627788410
   11        135.428000000000        -2.485943762768
   12        341.414000000000         1.960890152737
 D 7
    1          9.837000000000         0.021691469948
    2          3.844000000000         0.122385763112
    3          1.502000000000         0.445914871197
    4          0.587000000000         0.563890018947
    5         27.044000000000         0.003051614388
    6         75.750000000000         0.000285175221
    7        212.176000000000         0.000045645066
 D 7
    1          9.837000000000         0.063425587075
    2          3.844000000000         0.077627602830
    3          1.502000000000         1.139777615855
    4          0.587000000000        -1.234206942618
    5         27.044000000000        -0.003253361649
    6         75.750000000000         0.002285451638
    7        212.176000000000        -0.000308896534
 D 7
    1          9.837000000000        -0.110275420928
    2          3.844000000000         1.593632404091
    3          1.502000000000        -1.687710935175
    4          0.587000000000         0.712453253162
    5         27.044000000000         0.060936988882
    6         75.750000000000        -0.010343270505
    7        212.176000000000         0.002456375257
 D 7
    1          9.837000000000        -1.721108237585
    2          3.844000000000         1.728547416735
    3          1.502000000000        -0.946521864292
    4          0.587000000000         0.320056470941
    5         27.044000000000         0.181400356851
    6         75.750000000000        -0.055247688633
    7        212.176000000000         0.009239468964
 D 7
    1          9.837000000000        -1.529705230323
    2          3.844000000000         0.919735742918
    3          1.502000000000        -0.438033718232
    4          0.587000000000         0.145944271641
    5         27.044000000000         1.656303987679
    6         75.750000000000        -0.215732558254
    7        212.176000000000         0.044824867202
 D 7
    1          9.837000000000         0.773847048749
    2          3.844000000000        -0.425056268611
    3          1.502000000000         0.202525645587
    4          0.587000000000        -0.068271819838
    5         27.044000000000        -1.327231849172
    6         75.750000000000         1.590663392411
    7        212.176000000000        -0.183329926013
 D 7
    1          9.837000000000        -0.352398591396
    2          3.844000000000         0.195240915705
    3          1.502000000000        -0.094220190494
    4          0.587000000000         0.031994687765
    5         27.044000000000         0.646701265898
    6         75.750000000000        -1.176809546256
    7        212.176000000000         1.415885496561
 F 5
    1          7.090000000000         0.033104492749
    2          2.738000000000        -0.039109094780
    3          1.057000000000         1.018078999876
    4         28.029000000000        -0.002013321713
    5        102.586000000000         0.000313803153
 F 5
    1          7.090000000000         0.100417095176
    2          2.738000000000        -1.341016370440
    3          1.057000000000         0.792330538215
    4         28.029000000000        -0.015245792839
    5        102.586000000000         0.001725951516
 F 5
    1          7.090000000000         1.360736544754
    2          2.738000000000        -1.015328063512
    3          1.057000000000         0.370954176649
    4         28.029000000000        -0.046208810450
    5        102.586000000000         0.007183018064
 F 5
    1          7.090000000000         0.578350165802
    2          2.738000000000        -0.327563602175
    3          1.057000000000         0.116643956212
    4         28.029000000000        -1.138082184964
    5        102.586000000000         0.073921643759
 F 5
    1          7.090000000000         0.177075718489
    2          2.738000000000        -0.100683526162
    3          1.057000000000         0.036575969958
    4         28.029000000000        -0.455960620969
    5        102.586000000000         1.108131907276
 G 3
    1          5.460000000000        -0.074813014607
    2          1.880000000000         1.033267218681
    3         38.794000000000         0.001408474164
 G 3
    1          5.460000000000        -1.133680436298
    2          1.880000000000         0.471301180189
    3         38.794000000000         0.005161983029
 G 3
    1          5.460000000000        -0.118387642225
    2          1.880000000000         0.046514116474
    3         38.794000000000         1.005996079363
 H 1
    1          3.776000000000         1.000000000000
 end
  // -----------------------------------------------
  // The basis set
  // -----------------------------------------------
  BAS[ATNO] = new BFNGauss[NSH];
  // Basis function   1 L = s
  InitBFNGauss(BAS[ATNO][  0]);
  BAS[ATNO][  0].l  = 0;
  BAS[ATNO][  0].ng = 28;
  BAS[ATNO][  0].a[  0] =    262700.000000000000;     BAS[ATNO][  0].d[  0] =         0.000025892098;
  BAS[ATNO][  0].a[  1] =     39350.000000000000;     BAS[ATNO][  0].d[  1] =         0.000199169988;
  BAS[ATNO][  0].a[  2] =      8955.000000000000;     BAS[ATNO][  0].d[  2] =         0.001045642439;
  BAS[ATNO][  0].a[  3] =      2538.000000000000;     BAS[ATNO][  0].d[  3] =         0.004381739745;
  BAS[ATNO][  0].a[  4] =       829.900000000000;     BAS[ATNO][  0].d[  4] =         0.015584055742;
  BAS[ATNO][  0].a[  5] =       301.500000000000;     BAS[ATNO][  0].d[  5] =         0.047559801530;
  BAS[ATNO][  0].a[  6] =       119.000000000000;     BAS[ATNO][  0].d[  6] =         0.122432779420;
  BAS[ATNO][  0].a[  7] =        50.000000000000;     BAS[ATNO][  0].d[  7] =         0.251435180908;
  BAS[ATNO][  0].a[  8] =        21.980000000000;     BAS[ATNO][  0].d[  8] =         0.364793775657;
  BAS[ATNO][  0].a[  9] =         9.891000000000;     BAS[ATNO][  0].d[  9] =         0.278456573234;
  BAS[ATNO][  0].a[ 10] =    262700.000000000000;     BAS[ATNO][  0].d[ 10] =         0.000000216111;
  BAS[ATNO][  0].a[ 11] =     39350.000000000000;     BAS[ATNO][  0].d[ 11] =         0.000001692873;
  BAS[ATNO][  0].a[ 12] =      8955.000000000000;     BAS[ATNO][  0].d[ 12] =         0.000008896586;
  BAS[ATNO][  0].a[ 13] =      2538.000000000000;     BAS[ATNO][  0].d[ 13] =         0.000037387273;
  BAS[ATNO][  0].a[ 14] =       829.900000000000;     BAS[ATNO][  0].d[ 14] =         0.000133664905;
  BAS[ATNO][  0].a[ 15] =       301.500000000000;     BAS[ATNO][  0].d[ 15] =         0.000417563257;
  BAS[ATNO][  0].a[ 16] =       119.000000000000;     BAS[ATNO][  0].d[ 16] =         0.001119673201;
  BAS[ATNO][  0].a[ 17] =        50.000000000000;     BAS[ATNO][  0].d[ 17] =         0.002556309799;
  BAS[ATNO][  0].a[ 18] =        21.980000000000;     BAS[ATNO][  0].d[ 18] =         0.004583939058;
  BAS[ATNO][  0].a[ 19] =         9.891000000000;     BAS[ATNO][  0].d[ 19] =         0.005447124037;
  BAS[ATNO][  0].a[ 20] =         4.327000000000;     BAS[ATNO][  0].d[ 20] =         0.055663078545;
  BAS[ATNO][  0].a[ 21] =         1.804000000000;     BAS[ATNO][  0].d[ 21] =        -0.002104213767;
  BAS[ATNO][  0].a[ 22] =         0.728800000000;     BAS[ATNO][  0].d[ 22] =         0.000788620488;
  BAS[ATNO][  0].a[ 23] =         0.286700000000;     BAS[ATNO][  0].d[ 23] =        -0.000192220068;
  BAS[ATNO][  0].a[ 24] =        24.313000000000;     BAS[ATNO][  0].d[ 24] =        -0.001883831300;
  BAS[ATNO][  0].a[ 25] =        54.680000000000;     BAS[ATNO][  0].d[ 25] =        -0.001471021882;
  BAS[ATNO][  0].a[ 26] =       122.975000000000;     BAS[ATNO][  0].d[ 26] =        -0.000080819671;
  BAS[ATNO][  0].a[ 27] =       276.571000000000;     BAS[ATNO][  0].d[ 27] =         0.000078263445;

  // Basis function   2 L = s
  InitBFNGauss(BAS[ATNO][  1]);
  BAS[ATNO][  1].l  = 0;
  BAS[ATNO][  1].ng = 28;
  BAS[ATNO][  1].a[  0] =    262700.000000000000;     BAS[ATNO][  1].d[  0] =         0.000001181479;
  BAS[ATNO][  1].a[  1] =     39350.000000000000;     BAS[ATNO][  1].d[  1] =         0.000009088297;
  BAS[ATNO][  1].a[  2] =      8955.000000000000;     BAS[ATNO][  1].d[  2] =         0.000047713561;
  BAS[ATNO][  1].a[  3] =      2538.000000000000;     BAS[ATNO][  1].d[  3] =         0.000199942543;
  BAS[ATNO][  1].a[  4] =       829.900000000000;     BAS[ATNO][  1].d[  4] =         0.000711113830;
  BAS[ATNO][  1].a[  5] =       301.500000000000;     BAS[ATNO][  1].d[  5] =         0.002170194536;
  BAS[ATNO][  1].a[  6] =       119.000000000000;     BAS[ATNO][  1].d[  6] =         0.005586712736;
  BAS[ATNO][  1].a[  7] =        50.000000000000;     BAS[ATNO][  1].d[  7] =         0.011473202961;
  BAS[ATNO][  1].a[  8] =        21.980000000000;     BAS[ATNO][  1].d[  8] =         0.016645852867;
  BAS[ATNO][  1].a[  9] =         9.891000000000;     BAS[ATNO][  1].d[  9] =         0.012706212269;
  BAS[ATNO][  1].a[ 10] =    262700.000000000000;     BAS[ATNO][  1].d[ 10] =        -0.000009521512;
  BAS[ATNO][  1].a[ 11] =     39350.000000000000;     BAS[ATNO][  1].d[ 11] =        -0.000074585180;
  BAS[ATNO][  1].a[ 12] =      8955.000000000000;     BAS[ATNO][  1].d[ 12] =        -0.000391968927;
  BAS[ATNO][  1].a[ 13] =      2538.000000000000;     BAS[ATNO][  1].d[ 13] =        -0.001647221646;
  BAS[ATNO][  1].a[ 14] =       829.900000000000;     BAS[ATNO][  1].d[ 14] =        -0.005889055422;
  BAS[ATNO][  1].a[ 15] =       301.500000000000;     BAS[ATNO][  1].d[ 15] =        -0.018397148882;
  BAS[ATNO][  1].a[ 16] =       119.000000000000;     BAS[ATNO][  1].d[ 16] =        -0.049330955763;
  BAS[ATNO][  1].a[ 17] =        50.000000000000;     BAS[ATNO][  1].d[ 17] =        -0.112626796385;
  BAS[ATNO][  1].a[ 18] =        21.980000000000;     BAS[ATNO][  1].d[ 18] =        -0.201960799592;
  BAS[ATNO][  1].a[ 19] =         9.891000000000;     BAS[ATNO][  1].d[ 19] =        -0.239991307051;
  BAS[ATNO][  1].a[ 20] =         4.327000000000;     BAS[ATNO][  1].d[ 20] =         0.167402155986;
  BAS[ATNO][  1].a[ 21] =         1.804000000000;     BAS[ATNO][  1].d[ 21] =         0.801167404913;
  BAS[ATNO][  1].a[ 22] =         0.728800000000;     BAS[ATNO][  1].d[ 22] =         0.228157111190;
  BAS[ATNO][  1].a[ 23] =         0.286700000000;     BAS[ATNO][  1].d[ 23] =        -0.011992525827;
  BAS[ATNO][  1].a[ 24] =        24.313000000000;     BAS[ATNO][  1].d[ 24] =        -0.000848120456;
  BAS[ATNO][  1].a[ 25] =        54.680000000000;     BAS[ATNO][  1].d[ 25] =        -0.000861865323;
  BAS[ATNO][  1].a[ 26] =       122.975000000000;     BAS[ATNO][  1].d[ 26] =         0.000122270089;
  BAS[ATNO][  1].a[ 27] =       276.571000000000;     BAS[ATNO][  1].d[ 27] =        -0.000096760266;

  // Basis function   3 L = s
  InitBFNGauss(BAS[ATNO][  2]);
  BAS[ATNO][  2].l  = 0;
  BAS[ATNO][  2].ng = 28;
  BAS[ATNO][  2].a[  0] =    262700.000000000000;     BAS[ATNO][  2].d[  0] =         0.000000001108;
  BAS[ATNO][  2].a[  1] =     39350.000000000000;     BAS[ATNO][  2].d[  1] =         0.000000008526;
  BAS[ATNO][  2].a[  2] =      8955.000000000000;     BAS[ATNO][  2].d[  2] =         0.000000044762;
  BAS[ATNO][  2].a[  3] =      2538.000000000000;     BAS[ATNO][  2].d[  3] =         0.000000187575;
  BAS[ATNO][  2].a[  4] =       829.900000000000;     BAS[ATNO][  2].d[  4] =         0.000000667127;
  BAS[ATNO][  2].a[  5] =       301.500000000000;     BAS[ATNO][  2].d[  5] =         0.000002035956;
  BAS[ATNO][  2].a[  6] =       119.000000000000;     BAS[ATNO][  2].d[  6] =         0.000005241143;
  BAS[ATNO][  2].a[  7] =        50.000000000000;     BAS[ATNO][  2].d[  7] =         0.000010763520;
  BAS[ATNO][  2].a[  8] =        21.980000000000;     BAS[ATNO][  2].d[  8] =         0.000015616211;
  BAS[ATNO][  2].a[  9] =         9.891000000000;     BAS[ATNO][  2].d[  9] =         0.000011920260;
  BAS[ATNO][  2].a[ 10] =    262700.000000000000;     BAS[ATNO][  2].d[ 10] =        -0.000004423497;
  BAS[ATNO][  2].a[ 11] =     39350.000000000000;     BAS[ATNO][  2].d[ 11] =        -0.000034650725;
  BAS[ATNO][  2].a[ 12] =      8955.000000000000;     BAS[ATNO][  2].d[ 12] =        -0.000182100618;
  BAS[ATNO][  2].a[ 13] =      2538.000000000000;     BAS[ATNO][  2].d[ 13] =        -0.000765264945;
  BAS[ATNO][  2].a[ 14] =       829.900000000000;     BAS[ATNO][  2].d[ 14] =        -0.002735932767;
  BAS[ATNO][  2].a[ 15] =       301.500000000000;     BAS[ATNO][  2].d[ 15] =        -0.008546933054;
  BAS[ATNO][  2].a[ 16] =       119.000000000000;     BAS[ATNO][  2].d[ 16] =        -0.022918136886;
  BAS[ATNO][  2].a[ 17] =        50.000000000000;     BAS[ATNO][  2].d[ 17] =        -0.052324069068;
  BAS[ATNO][  2].a[ 18] =        21.980000000000;     BAS[ATNO][  2].d[ 18] =        -0.093826790482;
  BAS[ATNO][  2].a[ 19] =         9.891000000000;     BAS[ATNO][  2].d[ 19] =        -0.111494973923;
  BAS[ATNO][  2].a[ 20] =         4.327000000000;     BAS[ATNO][  2].d[ 20] =         0.059125360851;
  BAS[ATNO][  2].a[ 21] =         1.804000000000;     BAS[ATNO][  2].d[ 21] =         1.137991832323;
  BAS[ATNO][  2].a[ 22] =         0.728800000000;     BAS[ATNO][  2].d[ 22] =        -0.542629166212;
  BAS[ATNO][  2].a[ 23] =         0.286700000000;     BAS[ATNO][  2].d[ 23] =        -0.927292452463;
  BAS[ATNO][  2].a[ 24] =        24.313000000000;     BAS[ATNO][  2].d[ 24] =        -0.022522635708;
  BAS[ATNO][  2].a[ 25] =        54.680000000000;     BAS[ATNO][  2].d[ 25] =         0.002982331296;
  BAS[ATNO][  2].a[ 26] =       122.975000000000;     BAS[ATNO][  2].d[ 26] =        -0.001964284335;
  BAS[ATNO][  2].a[ 27] =       276.571000000000;     BAS[ATNO][  2].d[ 27] =         0.000416745569;

  // Basis function   4 L = s
  InitBFNGauss(BAS[ATNO][  3]);
  BAS[ATNO][  3].l  = 0;
  BAS[ATNO][  3].ng = 28;
  BAS[ATNO][  3].a[  0] =    262700.000000000000;     BAS[ATNO][  3].d[  0] =         0.000011989678;
  BAS[ATNO][  3].a[  1] =     39350.000000000000;     BAS[ATNO][  3].d[  1] =         0.000092228296;
  BAS[ATNO][  3].a[  2] =      8955.000000000000;     BAS[ATNO][  3].d[  2] =         0.000484198555;
  BAS[ATNO][  3].a[  3] =      2538.000000000000;     BAS[ATNO][  3].d[  3] =         0.002029022515;
  BAS[ATNO][  3].a[  4] =       829.900000000000;     BAS[ATNO][  3].d[  4] =         0.007216403031;
  BAS[ATNO][  3].a[  5] =       301.500000000000;     BAS[ATNO][  3].d[  5] =         0.022023194833;
  BAS[ATNO][  3].a[  6] =       119.000000000000;     BAS[ATNO][  3].d[  6] =         0.056694117057;
  BAS[ATNO][  3].a[  7] =        50.000000000000;     BAS[ATNO][  3].d[  7] =         0.116430384461;
  BAS[ATNO][  3].a[  8] =        21.980000000000;     BAS[ATNO][  3].d[  8] =         0.168922580346;
  BAS[ATNO][  3].a[  9] =         9.891000000000;     BAS[ATNO][  3].d[  9] =         0.128942997397;
  BAS[ATNO][  3].a[ 10] =    262700.000000000000;     BAS[ATNO][  3].d[ 10] =        -0.000006864581;
  BAS[ATNO][  3].a[ 11] =     39350.000000000000;     BAS[ATNO][  3].d[ 11] =        -0.000053772551;
  BAS[ATNO][  3].a[ 12] =      8955.000000000000;     BAS[ATNO][  3].d[ 12] =        -0.000282591917;
  BAS[ATNO][  3].a[ 13] =      2538.000000000000;     BAS[ATNO][  3].d[ 13] =        -0.001187572508;
  BAS[ATNO][  3].a[ 14] =       829.900000000000;     BAS[ATNO][  3].d[ 14] =        -0.004245743331;
  BAS[ATNO][  3].a[ 15] =       301.500000000000;     BAS[ATNO][  3].d[ 15] =        -0.013263514535;
  BAS[ATNO][  3].a[ 16] =       119.000000000000;     BAS[ATNO][  3].d[ 16] =        -0.035565394016;
  BAS[ATNO][  3].a[ 17] =        50.000000000000;     BAS[ATNO][  3].d[ 17] =        -0.081198840123;
  BAS[ATNO][  3].a[ 18] =        21.980000000000;     BAS[ATNO][  3].d[ 18] =        -0.145604626996;
  BAS[ATNO][  3].a[ 19] =         9.891000000000;     BAS[ATNO][  3].d[ 19] =        -0.173022907494;
  BAS[ATNO][  3].a[ 20] =         4.327000000000;     BAS[ATNO][  3].d[ 20] =         0.372344593335;
  BAS[ATNO][  3].a[ 21] =         1.804000000000;     BAS[ATNO][  3].d[ 21] =        -2.789092242937;
  BAS[ATNO][  3].a[ 22] =         0.728800000000;     BAS[ATNO][  3].d[ 22] =         4.375984207836;
  BAS[ATNO][  3].a[ 23] =         0.286700000000;     BAS[ATNO][  3].d[ 23] =        -2.409616188396;
  BAS[ATNO][  3].a[ 24] =        24.313000000000;     BAS[ATNO][  3].d[ 24] =         0.165798959109;
  BAS[ATNO][  3].a[ 25] =        54.680000000000;     BAS[ATNO][  3].d[ 25] =        -0.018018615476;
  BAS[ATNO][  3].a[ 26] =       122.975000000000;     BAS[ATNO][  3].d[ 26] =         0.014654013001;
  BAS[ATNO][  3].a[ 27] =       276.571000000000;     BAS[ATNO][  3].d[ 27] =        -0.002861393640;

  // Basis function   5 L = s
  InitBFNGauss(BAS[ATNO][  4]);
  BAS[ATNO][  4].l  = 0;
  BAS[ATNO][  4].ng = 28;
  BAS[ATNO][  4].a[  0] =    262700.000000000000;     BAS[ATNO][  4].d[  0] =        -0.000142949810;
  BAS[ATNO][  4].a[  1] =     39350.000000000000;     BAS[ATNO][  4].d[  1] =        -0.001099613923;
  BAS[ATNO][  4].a[  2] =      8955.000000000000;     BAS[ATNO][  4].d[  2] =        -0.005772973096;
  BAS[ATNO][  4].a[  3] =      2538.000000000000;     BAS[ATNO][  4].d[  3] =        -0.024191506308;
  BAS[ATNO][  4].a[  4] =       829.900000000000;     BAS[ATNO][  4].d[  4] =        -0.086039291413;
  BAS[ATNO][  4].a[  5] =       301.500000000000;     BAS[ATNO][  4].d[  5] =        -0.262576808698;
  BAS[ATNO][  4].a[  6] =       119.000000000000;     BAS[ATNO][  4].d[  6] =        -0.675949172742;
  BAS[ATNO][  4].a[  7] =        50.000000000000;     BAS[ATNO][  4].d[  7] =        -1.388169110738;
  BAS[ATNO][  4].a[  8] =        21.980000000000;     BAS[ATNO][  4].d[  8] =        -2.014019873143;
  BAS[ATNO][  4].a[  9] =         9.891000000000;     BAS[ATNO][  4].d[  9] =        -1.537353731686;
  BAS[ATNO][  4].a[ 10] =    262700.000000000000;     BAS[ATNO][  4].d[ 10] =         0.000146889930;
  BAS[ATNO][  4].a[ 11] =     39350.000000000000;     BAS[ATNO][  4].d[ 11] =         0.001150637785;
  BAS[ATNO][  4].a[ 12] =      8955.000000000000;     BAS[ATNO][  4].d[ 12] =         0.006046968783;
  BAS[ATNO][  4].a[ 13] =      2538.000000000000;     BAS[ATNO][  4].d[ 13] =         0.025411957881;
  BAS[ATNO][  4].a[ 14] =       829.900000000000;     BAS[ATNO][  4].d[ 14] =         0.090851421672;
  BAS[ATNO][  4].a[ 15] =       301.500000000000;     BAS[ATNO][  4].d[ 15] =         0.283815826312;
  BAS[ATNO][  4].a[ 16] =       119.000000000000;     BAS[ATNO][  4].d[ 16] =         0.761036727053;
  BAS[ATNO][  4].a[ 17] =        50.000000000000;     BAS[ATNO][  4].d[ 17] =         1.737512018027;
  BAS[ATNO][  4].a[ 18] =        21.980000000000;     BAS[ATNO][  4].d[ 18] =         3.115682304094;
  BAS[ATNO][  4].a[ 19] =         9.891000000000;     BAS[ATNO][  4].d[ 19] =         3.702385165956;
  BAS[ATNO][  4].a[ 20] =         4.327000000000;     BAS[ATNO][  4].d[ 20] =        -6.026461064999;
  BAS[ATNO][  4].a[ 21] =         1.804000000000;     BAS[ATNO][  4].d[ 21] =         6.683920447398;
  BAS[ATNO][  4].a[ 22] =         0.728800000000;     BAS[ATNO][  4].d[ 22] =        -3.999024719906;
  BAS[ATNO][  4].a[ 23] =         0.286700000000;     BAS[ATNO][  4].d[ 23] =         1.211705522594;
  BAS[ATNO][  4].a[ 24] =        24.313000000000;     BAS[ATNO][  4].d[ 24] =        -1.452898778935;
  BAS[ATNO][  4].a[ 25] =        54.680000000000;     BAS[ATNO][  4].d[ 25] =         0.109199864936;
  BAS[ATNO][  4].a[ 26] =       122.975000000000;     BAS[ATNO][  4].d[ 26] =        -0.121890699015;
  BAS[ATNO][  4].a[ 27] =       276.571000000000;     BAS[ATNO][  4].d[ 27] =         0.020671230961;

  // Basis function   6 L = s
  InitBFNGauss(BAS[ATNO][  5]);
  BAS[ATNO][  5].l  = 0;
  BAS[ATNO][  5].ng = 28;
  BAS[ATNO][  5].a[  0] =    262700.000000000000;     BAS[ATNO][  5].d[  0] =        -0.000562305978;
  BAS[ATNO][  5].a[  1] =     39350.000000000000;     BAS[ATNO][  5].d[  1] =        -0.004325430602;
  BAS[ATNO][  5].a[  2] =      8955.000000000000;     BAS[ATNO][  5].d[  2] =        -0.022708510658;
  BAS[ATNO][  5].a[  3] =      2538.000000000000;     BAS[ATNO][  5].d[  3] =        -0.095159473233;
  BAS[ATNO][  5].a[  4] =       829.900000000000;     BAS[ATNO][  5].d[  4] =        -0.338443317416;
  BAS[ATNO][  5].a[  5] =       301.500000000000;     BAS[ATNO][  5].d[  5] =        -1.032869573336;
  BAS[ATNO][  5].a[  6] =       119.000000000000;     BAS[ATNO][  5].d[  6] =        -2.658907072210;
  BAS[ATNO][  5].a[  7] =        50.000000000000;     BAS[ATNO][  5].d[  7] =        -5.460488472812;
  BAS[ATNO][  5].a[  8] =        21.980000000000;     BAS[ATNO][  5].d[  8] =        -7.922328926817;
  BAS[ATNO][  5].a[  9] =         9.891000000000;     BAS[ATNO][  5].d[  9] =        -6.047319642519;
  BAS[ATNO][  5].a[ 10] =    262700.000000000000;     BAS[ATNO][  5].d[ 10] =         0.000520878470;
  BAS[ATNO][  5].a[ 11] =     39350.000000000000;     BAS[ATNO][  5].d[ 11] =         0.004080214684;
  BAS[ATNO][  5].a[ 12] =      8955.000000000000;     BAS[ATNO][  5].d[ 12] =         0.021442830363;
  BAS[ATNO][  5].a[ 13] =      2538.000000000000;     BAS[ATNO][  5].d[ 13] =         0.090111975372;
  BAS[ATNO][  5].a[ 14] =       829.900000000000;     BAS[ATNO][  5].d[ 14] =         0.322163333916;
  BAS[ATNO][  5].a[ 15] =       301.500000000000;     BAS[ATNO][  5].d[ 15] =         1.006424017809;
  BAS[ATNO][  5].a[ 16] =       119.000000000000;     BAS[ATNO][  5].d[ 16] =         2.698671354923;
  BAS[ATNO][  5].a[ 17] =        50.000000000000;     BAS[ATNO][  5].d[ 17] =         6.161297799703;
  BAS[ATNO][  5].a[ 18] =        21.980000000000;     BAS[ATNO][  5].d[ 18] =        11.048353234755;
  BAS[ATNO][  5].a[ 19] =         9.891000000000;     BAS[ATNO][  5].d[ 19] =        13.128828658441;
  BAS[ATNO][  5].a[ 20] =         4.327000000000;     BAS[ATNO][  5].d[ 20] =        -7.318948008445;
  BAS[ATNO][  5].a[ 21] =         1.804000000000;     BAS[ATNO][  5].d[ 21] =         4.497145774776;
  BAS[ATNO][  5].a[ 22] =         0.728800000000;     BAS[ATNO][  5].d[ 22] =        -2.005086087491;
  BAS[ATNO][  5].a[ 23] =         0.286700000000;     BAS[ATNO][  5].d[ 23] =         0.544383722957;
  BAS[ATNO][  5].a[ 24] =        24.313000000000;     BAS[ATNO][  5].d[ 24] =        -6.739775815642;
  BAS[ATNO][  5].a[ 25] =        54.680000000000;     BAS[ATNO][  5].d[ 25] =         0.411344885999;
  BAS[ATNO][  5].a[ 26] =       122.975000000000;     BAS[ATNO][  5].d[ 26] =        -0.509347933705;
  BAS[ATNO][  5].a[ 27] =       276.571000000000;     BAS[ATNO][  5].d[ 27] =         0.077947063959;

  // Basis function   7 L = s
  InitBFNGauss(BAS[ATNO][  6]);
  BAS[ATNO][  6].l  = 0;
  BAS[ATNO][  6].ng = 28;
  BAS[ATNO][  6].a[  0] =    262700.000000000000;     BAS[ATNO][  6].d[  0] =        -0.000489865137;
  BAS[ATNO][  6].a[  1] =     39350.000000000000;     BAS[ATNO][  6].d[  1] =        -0.003768193360;
  BAS[ATNO][  6].a[  2] =      8955.000000000000;     BAS[ATNO][  6].d[  2] =        -0.019783015141;
  BAS[ATNO][  6].a[  3] =      2538.000000000000;     BAS[ATNO][  6].d[  3] =        -0.082900253923;
  BAS[ATNO][  6].a[  4] =       829.900000000000;     BAS[ATNO][  6].d[  4] =        -0.294842289462;
  BAS[ATNO][  6].a[  5] =       301.500000000000;     BAS[ATNO][  6].d[  5] =        -0.899806892462;
  BAS[ATNO][  6].a[  6] =       119.000000000000;     BAS[ATNO][  6].d[  6] =        -2.316364981364;
  BAS[ATNO][  6].a[  7] =        50.000000000000;     BAS[ATNO][  6].d[  7] =        -4.757023820711;
  BAS[ATNO][  6].a[  8] =        21.980000000000;     BAS[ATNO][  6].d[  8] =        -6.901709912588;
  BAS[ATNO][  6].a[  9] =         9.891000000000;     BAS[ATNO][  6].d[  9] =        -5.268254613878;
  BAS[ATNO][  6].a[ 10] =    262700.000000000000;     BAS[ATNO][  6].d[ 10] =         0.000479768121;
  BAS[ATNO][  6].a[ 11] =     39350.000000000000;     BAS[ATNO][  6].d[ 11] =         0.003758183618;
  BAS[ATNO][  6].a[ 12] =      8955.000000000000;     BAS[ATNO][  6].d[ 12] =         0.019750454334;
  BAS[ATNO][  6].a[ 13] =      2538.000000000000;     BAS[ATNO][  6].d[ 13] =         0.082999885016;
  BAS[ATNO][  6].a[ 14] =       829.900000000000;     BAS[ATNO][  6].d[ 14] =         0.296736583136;
  BAS[ATNO][  6].a[ 15] =       301.500000000000;     BAS[ATNO][  6].d[ 15] =         0.926991972054;
  BAS[ATNO][  6].a[ 16] =       119.000000000000;     BAS[ATNO][  6].d[ 16] =         2.485678637391;
  BAS[ATNO][  6].a[ 17] =        50.000000000000;     BAS[ATNO][  6].d[ 17] =         5.675017186288;
  BAS[ATNO][  6].a[ 18] =        21.980000000000;     BAS[ATNO][  6].d[ 18] =        10.176361624727;
  BAS[ATNO][  6].a[ 19] =         9.891000000000;     BAS[ATNO][  6].d[ 19] =        12.092635463274;
  BAS[ATNO][  6].a[ 20] =         4.327000000000;     BAS[ATNO][  6].d[ 20] =        -4.723380873065;
  BAS[ATNO][  6].a[ 21] =         1.804000000000;     BAS[ATNO][  6].d[ 21] =         2.454681028150;
  BAS[ATNO][  6].a[ 22] =         0.728800000000;     BAS[ATNO][  6].d[ 22] =        -1.047053364873;
  BAS[ATNO][  6].a[ 23] =         0.286700000000;     BAS[ATNO][  6].d[ 23] =         0.283131863230;
  BAS[ATNO][  6].a[ 24] =        24.313000000000;     BAS[ATNO][  6].d[ 24] =       -11.266197452516;
  BAS[ATNO][  6].a[ 25] =        54.680000000000;     BAS[ATNO][  6].d[ 25] =         4.304435732665;
  BAS[ATNO][  6].a[ 26] =       122.975000000000;     BAS[ATNO][  6].d[ 26] =        -1.276054430243;
  BAS[ATNO][  6].a[ 27] =       276.571000000000;     BAS[ATNO][  6].d[ 27] =         0.336441598683;

  // Basis function   8 L = s
  InitBFNGauss(BAS[ATNO][  7]);
  BAS[ATNO][  7].l  = 0;
  BAS[ATNO][  7].ng = 28;
  BAS[ATNO][  7].a[  0] =    262700.000000000000;     BAS[ATNO][  7].d[  0] =        -0.000570163108;
  BAS[ATNO][  7].a[  1] =     39350.000000000000;     BAS[ATNO][  7].d[  1] =        -0.004385870059;
  BAS[ATNO][  7].a[  2] =      8955.000000000000;     BAS[ATNO][  7].d[  2] =        -0.023025817812;
  BAS[ATNO][  7].a[  3] =      2538.000000000000;     BAS[ATNO][  7].d[  3] =        -0.096489141306;
  BAS[ATNO][  7].a[  4] =       829.900000000000;     BAS[ATNO][  7].d[  4] =        -0.343172402795;
[...]
  BAS[ATNO][ 14].a[  6] =         0.515800000000;     BAS[ATNO][ 14].d[  6] =         1.246513012841;
  BAS[ATNO][ 14].a[  7] =         0.191800000000;     BAS[ATNO][ 14].d[  7] =        -0.380734308390;
  BAS[ATNO][ 14].a[  8] =        21.309000000000;     BAS[ATNO][ 14].d[  8] =         0.788272739848;
  BAS[ATNO][ 14].a[  9] =        53.720000000000;     BAS[ATNO][ 14].d[  9] =         0.015847240881;
  BAS[ATNO][ 14].a[ 10] =       135.428000000000;     BAS[ATNO][ 14].d[ 10] =         0.054811120935;
  BAS[ATNO][ 14].a[ 11] =       341.414000000000;     BAS[ATNO][ 14].d[ 11] =         0.001776845808;

  // Basis function  16 L = p
  InitBFNGauss(BAS[ATNO][ 15]);
  BAS[ATNO][ 15].l  = 1;
  BAS[ATNO][ 15].ng = 12;
  BAS[ATNO][ 15].a[  0] =       299.100000000000;     BAS[ATNO][ 15].d[  0] =        -0.024778086059;
  BAS[ATNO][ 15].a[  1] =        70.730000000000;     BAS[ATNO][ 15].d[  1] =        -0.199919528653;
  BAS[ATNO][ 15].a[  2] =        22.480000000000;     BAS[ATNO][ 15].d[  2] =        -0.947511146369;
  BAS[ATNO][ 15].a[  3] =         8.246000000000;     BAS[ATNO][ 15].d[  3] =        -3.056823302835;
  BAS[ATNO][ 15].a[  4] =         3.269000000000;     BAS[ATNO][ 15].d[  4] =         2.244962438986;
  BAS[ATNO][ 15].a[  5] =         1.315000000000;     BAS[ATNO][ 15].d[  5] =        -1.258117013415;
  BAS[ATNO][ 15].a[  6] =         0.515800000000;     BAS[ATNO][ 15].d[  6] =         0.563154189832;
  BAS[ATNO][ 15].a[  7] =         0.191800000000;     BAS[ATNO][ 15].d[  7] =        -0.168204341801;
  BAS[ATNO][ 15].a[  8] =        21.309000000000;     BAS[ATNO][ 15].d[  8] =         3.222022322264;
  BAS[ATNO][ 15].a[  9] =        53.720000000000;     BAS[ATNO][ 15].d[  9] =        -0.145405699309;
  BAS[ATNO][ 15].a[ 10] =       135.428000000000;     BAS[ATNO][ 15].d[ 10] =         0.189547217404;
  BAS[ATNO][ 15].a[ 11] =       341.414000000000;     BAS[ATNO][ 15].d[ 11] =        -0.006002745945;

  // Basis function  17 L = p
  InitBFNGauss(BAS[ATNO][ 16]);
  BAS[ATNO][ 16].l  = 1;
  BAS[ATNO][ 16].ng = 12;
  BAS[ATNO][ 16].a[  0] =       299.100000000000;     BAS[ATNO][ 16].d[  0] =        -0.016289243043;
  BAS[ATNO][ 16].a[  1] =        70.730000000000;     BAS[ATNO][ 16].d[  1] =        -0.131428141126;
  BAS[ATNO][ 16].a[  2] =        22.480000000000;     BAS[ATNO][ 16].d[  2] =        -0.622898770830;
  BAS[ATNO][ 16].a[  3] =         8.246000000000;     BAS[ATNO][ 16].d[  3] =        -2.009571586864;
  BAS[ATNO][ 16].a[  4] =         3.269000000000;     BAS[ATNO][ 16].d[  4] =         1.184870616725;
  BAS[ATNO][ 16].a[  5] =         1.315000000000;     BAS[ATNO][ 16].d[  5] =        -0.632259801288;
  BAS[ATNO][ 16].a[  6] =         0.515800000000;     BAS[ATNO][ 16].d[  6] =         0.282695094013;
  BAS[ATNO][ 16].a[  7] =         0.191800000000;     BAS[ATNO][ 16].d[  7] =        -0.084869812986;
  BAS[ATNO][ 16].a[  8] =        21.309000000000;     BAS[ATNO][ 16].d[  8] =         3.485812666939;
  BAS[ATNO][ 16].a[  9] =        53.720000000000;     BAS[ATNO][ 16].d[  9] =        -2.313178090906;
  BAS[ATNO][ 16].a[ 10] =       135.428000000000;     BAS[ATNO][ 16].d[ 10] =         0.469772455740;
  BAS[ATNO][ 16].a[ 11] =       341.414000000000;     BAS[ATNO][ 16].d[ 11] =        -0.096751189258;

  // Basis function  18 L = p
  InitBFNGauss(BAS[ATNO][ 17]);
  BAS[ATNO][ 17].l  = 1;
  BAS[ATNO][ 17].ng = 12;
  BAS[ATNO][ 17].a[  0] =       299.100000000000;     BAS[ATNO][ 17].d[  0] =         0.008819683486;
  BAS[ATNO][ 17].a[  1] =        70.730000000000;     BAS[ATNO][ 17].d[  1] =         0.071160741034;
  BAS[ATNO][ 17].a[  2] =        22.480000000000;     BAS[ATNO][ 17].d[  2] =         0.337263676881;
  BAS[ATNO][ 17].a[  3] =         8.246000000000;     BAS[ATNO][ 17].d[  3] =         1.088066848227;
  BAS[ATNO][ 17].a[  4] =         3.269000000000;     BAS[ATNO][ 17].d[  4] =        -0.624114389311;
  BAS[ATNO][ 17].a[  5] =         1.315000000000;     BAS[ATNO][ 17].d[  5] =         0.335142559967;
  BAS[ATNO][ 17].a[  6] =         0.515800000000;     BAS[ATNO][ 17].d[  6] =        -0.151010891438;
  BAS[ATNO][ 17].a[  7] =         0.191800000000;     BAS[ATNO][ 17].d[  7] =         0.045529614962;
  BAS[ATNO][ 17].a[  8] =        21.309000000000;     BAS[ATNO][ 17].d[  8] =        -2.196185466295;
  BAS[ATNO][ 17].a[  9] =        53.720000000000;     BAS[ATNO][ 17].d[  9] =         2.698579677498;
  BAS[ATNO][ 17].a[ 10] =       135.428000000000;     BAS[ATNO][ 17].d[ 10] =        -2.386306992844;
  BAS[ATNO][ 17].a[ 11] =       341.414000000000;     BAS[ATNO][ 17].d[ 11] =         0.299464354303;

  // Basis function  19 L = p
  InitBFNGauss(BAS[ATNO][ 18]);
  BAS[ATNO][ 18].l  = 1;
  BAS[ATNO][ 18].ng = 12;
  BAS[ATNO][ 18].a[  0] =       299.100000000000;     BAS[ATNO][ 18].d[  0] =        -0.004654345434;
  BAS[ATNO][ 18].a[  1] =        70.730000000000;     BAS[ATNO][ 18].d[  1] =        -0.037553124288;
  BAS[ATNO][ 18].a[  2] =        22.480000000000;     BAS[ATNO][ 18].d[  2] =        -0.177981631326;
  BAS[ATNO][ 18].a[  3] =         8.246000000000;     BAS[ATNO][ 18].d[  3] =        -0.574197359260;
  BAS[ATNO][ 18].a[  4] =         3.269000000000;     BAS[ATNO][ 18].d[  4] =         0.332748044065;
  BAS[ATNO][ 18].a[  5] =         1.315000000000;     BAS[ATNO][ 18].d[  5] =        -0.180290975189;
  BAS[ATNO][ 18].a[  6] =         0.515800000000;     BAS[ATNO][ 18].d[  6] =         0.081638328072;
  BAS[ATNO][ 18].a[  7] =         0.191800000000;     BAS[ATNO][ 18].d[  7] =        -0.024668579707;
  BAS[ATNO][ 18].a[  8] =        21.309000000000;     BAS[ATNO][ 18].d[  8] =         1.176700783988;
  BAS[ATNO][ 18].a[  9] =        53.720000000000;     BAS[ATNO][ 18].d[  9] =        -1.691627788410;
  BAS[ATNO][ 18].a[ 10] =       135.428000000000;     BAS[ATNO][ 18].d[ 10] =         2.485943762768;
  BAS[ATNO][ 18].a[ 11] =       341.414000000000;     BAS[ATNO][ 18].d[ 11] =        -1.960890152737;

  // Basis function  20 L = d
  InitBFNGauss(BAS[ATNO][ 19]);
  BAS[ATNO][ 19].l  = 2;
  BAS[ATNO][ 19].ng = 7;
  BAS[ATNO][ 19].a[  0] =         9.837000000000;     BAS[ATNO][ 19].d[  0] =         0.021691469948;
  BAS[ATNO][ 19].a[  1] =         3.844000000000;     BAS[ATNO][ 19].d[  1] =         0.122385763112;
  BAS[ATNO][ 19].a[  2] =         1.502000000000;     BAS[ATNO][ 19].d[  2] =         0.445914871197;
  BAS[ATNO][ 19].a[  3] =         0.587000000000;     BAS[ATNO][ 19].d[  3] =         0.563890018947;
  BAS[ATNO][ 19].a[  4] =        27.044000000000;     BAS[ATNO][ 19].d[  4] =         0.003051614388;
  BAS[ATNO][ 19].a[  5] =        75.750000000000;     BAS[ATNO][ 19].d[  5] =         0.000285175221;
  BAS[ATNO][ 19].a[  6] =       212.176000000000;     BAS[ATNO][ 19].d[  6] =         0.000045645066;

  // Basis function  21 L = d
  InitBFNGauss(BAS[ATNO][ 20]);
  BAS[ATNO][ 20].l  = 2;
  BAS[ATNO][ 20].ng = 7;
  BAS[ATNO][ 20].a[  0] =         9.837000000000;     BAS[ATNO][ 20].d[  0] =        -0.063425587075;
  BAS[ATNO][ 20].a[  1] =         3.844000000000;     BAS[ATNO][ 20].d[  1] =        -0.077627602830;
  BAS[ATNO][ 20].a[  2] =         1.502000000000;     BAS[ATNO][ 20].d[  2] =        -1.139777615855;
  BAS[ATNO][ 20].a[  3] =         0.587000000000;     BAS[ATNO][ 20].d[  3] =         1.234206942618;
  BAS[ATNO][ 20].a[  4] =        27.044000000000;     BAS[ATNO][ 20].d[  4] =         0.003253361649;
  BAS[ATNO][ 20].a[  5] =        75.750000000000;     BAS[ATNO][ 20].d[  5] =        -0.002285451638;
  BAS[ATNO][ 20].a[  6] =       212.176000000000;     BAS[ATNO][ 20].d[  6] =         0.000308896534;

  // Basis function  22 L = d
  InitBFNGauss(BAS[ATNO][ 21]);
  BAS[ATNO][ 21].l  = 2;
  BAS[ATNO][ 21].ng = 7;
  BAS[ATNO][ 21].a[  0] =         9.837000000000;     BAS[ATNO][ 21].d[  0] =         0.110275420928;
  BAS[ATNO][ 21].a[  1] =         3.844000000000;     BAS[ATNO][ 21].d[  1] =        -1.593632404091;
  BAS[ATNO][ 21].a[  2] =         1.502000000000;     BAS[ATNO][ 21].d[  2] =         1.687710935175;
  BAS[ATNO][ 21].a[  3] =         0.587000000000;     BAS[ATNO][ 21].d[  3] =        -0.712453253162;
  BAS[ATNO][ 21].a[  4] =        27.044000000000;     BAS[ATNO][ 21].d[  4] =        -0.060936988882;
  BAS[ATNO][ 21].a[  5] =        75.750000000000;     BAS[ATNO][ 21].d[  5] =         0.010343270505;
  BAS[ATNO][ 21].a[  6] =       212.176000000000;     BAS[ATNO][ 21].d[  6] =        -0.002456375257;

  // Basis function  23 L = d
  InitBFNGauss(BAS[ATNO][ 22]);
  BAS[ATNO][ 22].l  = 2;
  BAS[ATNO][ 22].ng = 7;
  BAS[ATNO][ 22].a[  0] =         9.837000000000;     BAS[ATNO][ 22].d[  0] =        -1.721108237585;
  BAS[ATNO][ 22].a[  1] =         3.844000000000;     BAS[ATNO][ 22].d[  1] =         1.728547416735;
  BAS[ATNO][ 22].a[  2] =         1.502000000000;     BAS[ATNO][ 22].d[  2] =        -0.946521864292;
  BAS[ATNO][ 22].a[  3] =         0.587000000000;     BAS[ATNO][ 22].d[  3] =         0.320056470941;
  BAS[ATNO][ 22].a[  4] =        27.044000000000;     BAS[ATNO][ 22].d[  4] =         0.181400356851;
  BAS[ATNO][ 22].a[  5] =        75.750000000000;     BAS[ATNO][ 22].d[  5] =        -0.055247688633;
  BAS[ATNO][ 22].a[  6] =       212.176000000000;     BAS[ATNO][ 22].d[  6] =         0.009239468964;

  // Basis function  24 L = d
  InitBFNGauss(BAS[ATNO][ 23]);
  BAS[ATNO][ 23].l  = 2;
  BAS[ATNO][ 23].ng = 7;
  BAS[ATNO][ 23].a[  0] =         9.837000000000;     BAS[ATNO][ 23].d[  0] =        -1.529705230323;
  BAS[ATNO][ 23].a[  1] =         3.844000000000;     BAS[ATNO][ 23].d[  1] =         0.919735742918;
  BAS[ATNO][ 23].a[  2] =         1.502000000000;     BAS[ATNO][ 23].d[  2] =        -0.438033718232;
  BAS[ATNO][ 23].a[  3] =         0.587000000000;     BAS[ATNO][ 23].d[  3] =         0.145944271641;
  BAS[ATNO][ 23].a[  4] =        27.044000000000;     BAS[ATNO][ 23].d[  4] =         1.656303987679;
  BAS[ATNO][ 23].a[  5] =        75.750000000000;     BAS[ATNO][ 23].d[  5] =        -0.215732558254;
  BAS[ATNO][ 23].a[  6] =       212.176000000000;     BAS[ATNO][ 23].d[  6] =         0.044824867202;

  // Basis function  25 L = d
  InitBFNGauss(BAS[ATNO][ 24]);
  BAS[ATNO][ 24].l  = 2;
  BAS[ATNO][ 24].ng = 7;
  BAS[ATNO][ 24].a[  0] =         9.837000000000;     BAS[ATNO][ 24].d[  0] =         0.773847048749;
  BAS[ATNO][ 24].a[  1] =         3.844000000000;     BAS[ATNO][ 24].d[  1] =        -0.425056268611;
  BAS[ATNO][ 24].a[  2] =         1.502000000000;     BAS[ATNO][ 24].d[  2] =         0.202525645587;
  BAS[ATNO][ 24].a[  3] =         0.587000000000;     BAS[ATNO][ 24].d[  3] =        -0.068271819838;
  BAS[ATNO][ 24].a[  4] =        27.044000000000;     BAS[ATNO][ 24].d[  4] =        -1.327231849172;
  BAS[ATNO][ 24].a[  5] =        75.750000000000;     BAS[ATNO][ 24].d[  5] =         1.590663392411;
  BAS[ATNO][ 24].a[  6] =       212.176000000000;     BAS[ATNO][ 24].d[  6] =        -0.183329926013;

  // Basis function  26 L = d
  InitBFNGauss(BAS[ATNO][ 25]);
  BAS[ATNO][ 25].l  = 2;
  BAS[ATNO][ 25].ng = 7;
  BAS[ATNO][ 25].a[  0] =         9.837000000000;     BAS[ATNO][ 25].d[  0] =        -0.352398591396;
  BAS[ATNO][ 25].a[  1] =         3.844000000000;     BAS[ATNO][ 25].d[  1] =         0.195240915705;
  BAS[ATNO][ 25].a[  2] =         1.502000000000;     BAS[ATNO][ 25].d[  2] =        -0.094220190494;
  BAS[ATNO][ 25].a[  3] =         0.587000000000;     BAS[ATNO][ 25].d[  3] =         0.031994687765;
  BAS[ATNO][ 25].a[  4] =        27.044000000000;     BAS[ATNO][ 25].d[  4] =         0.646701265898;
  BAS[ATNO][ 25].a[  5] =        75.750000000000;     BAS[ATNO][ 25].d[  5] =        -1.176809546256;
  BAS[ATNO][ 25].a[  6] =       212.176000000000;     BAS[ATNO][ 25].d[  6] =         1.415885496561;

  // Basis function  27 L = f
  InitBFNGauss(BAS[ATNO][ 26]);
  BAS[ATNO][ 26].l  = 3;
  BAS[ATNO][ 26].ng = 5;
  BAS[ATNO][ 26].a[  0] =         7.090000000000;     BAS[ATNO][ 26].d[  0] =         0.033104492749;
  BAS[ATNO][ 26].a[  1] =         2.738000000000;     BAS[ATNO][ 26].d[  1] =        -0.039109094780;
  BAS[ATNO][ 26].a[  2] =         1.057000000000;     BAS[ATNO][ 26].d[  2] =         1.018078999876;
  BAS[ATNO][ 26].a[  3] =        28.029000000000;     BAS[ATNO][ 26].d[  3] =        -0.002013321713;
  BAS[ATNO][ 26].a[  4] =       102.586000000000;     BAS[ATNO][ 26].d[  4] =         0.000313803153;

  // Basis function  28 L = f
  InitBFNGauss(BAS[ATNO][ 27]);
  BAS[ATNO][ 27].l  = 3;
  BAS[ATNO][ 27].ng = 5;
  BAS[ATNO][ 27].a[  0] =         7.090000000000;     BAS[ATNO][ 27].d[  0] =        -0.100417095176;
  BAS[ATNO][ 27].a[  1] =         2.738000000000;     BAS[ATNO][ 27].d[  1] =         1.341016370440;
  BAS[ATNO][ 27].a[  2] =         1.057000000000;     BAS[ATNO][ 27].d[  2] =        -0.792330538215;
  BAS[ATNO][ 27].a[  3] =        28.029000000000;     BAS[ATNO][ 27].d[  3] =         0.015245792839;
  BAS[ATNO][ 27].a[  4] =       102.586000000000;     BAS[ATNO][ 27].d[  4] =        -0.001725951516;

  // Basis function  29 L = f
  InitBFNGauss(BAS[ATNO][ 28]);
  BAS[ATNO][ 28].l  = 3;
  BAS[ATNO][ 28].ng = 5;
  BAS[ATNO][ 28].a[  0] =         7.090000000000;     BAS[ATNO][ 28].d[  0] =         1.360736544754;
  BAS[ATNO][ 28].a[  1] =         2.738000000000;     BAS[ATNO][ 28].d[  1] =        -1.015328063512;
  BAS[ATNO][ 28].a[  2] =         1.057000000000;     BAS[ATNO][ 28].d[  2] =         0.370954176649;
  BAS[ATNO][ 28].a[  3] =        28.029000000000;     BAS[ATNO][ 28].d[  3] =        -0.046208810450;
  BAS[ATNO][ 28].a[  4] =       102.586000000000;     BAS[ATNO][ 28].d[  4] =         0.007183018064;

  // Basis function  30 L = f
  InitBFNGauss(BAS[ATNO][ 29]);
  BAS[ATNO][ 29].l  = 3;
  BAS[ATNO][ 29].ng = 5;
  BAS[ATNO][ 29].a[  0] =         7.090000000000;     BAS[ATNO][ 29].d[  0] =        -0.578350165802;
  BAS[ATNO][ 29].a[  1] =         2.738000000000;     BAS[ATNO][ 29].d[  1] =         0.327563602175;
  BAS[ATNO][ 29].a[  2] =         1.057000000000;     BAS[ATNO][ 29].d[  2] =        -0.116643956212;
  BAS[ATNO][ 29].a[  3] =        28.029000000000;     BAS[ATNO][ 29].d[  3] =         1.138082184964;
  BAS[ATNO][ 29].a[  4] =       102.586000000000;     BAS[ATNO][ 29].d[  4] =        -0.073921643759;

  // Basis function  31 L = f
  InitBFNGauss(BAS[ATNO][ 30]);
  BAS[ATNO][ 30].l  = 3;
  BAS[ATNO][ 30].ng = 5;
  BAS[ATNO][ 30].a[  0] =         7.090000000000;     BAS[ATNO][ 30].d[  0] =         0.177075718489;
  BAS[ATNO][ 30].a[  1] =         2.738000000000;     BAS[ATNO][ 30].d[  1] =        -0.100683526162;
  BAS[ATNO][ 30].a[  2] =         1.057000000000;     BAS[ATNO][ 30].d[  2] =         0.036575969958;
  BAS[ATNO][ 30].a[  3] =        28.029000000000;     BAS[ATNO][ 30].d[  3] =        -0.455960620969;
  BAS[ATNO][ 30].a[  4] =       102.586000000000;     BAS[ATNO][ 30].d[  4] =         1.108131907276;

  // Basis function  32 L = g
  InitBFNGauss(BAS[ATNO][ 31]);
  BAS[ATNO][ 31].l  = 4;
  BAS[ATNO][ 31].ng = 3;
  BAS[ATNO][ 31].a[  0] =         5.460000000000;     BAS[ATNO][ 31].d[  0] =        -0.074813014607;
  BAS[ATNO][ 31].a[  1] =         1.880000000000;     BAS[ATNO][ 31].d[  1] =         1.033267218681;
  BAS[ATNO][ 31].a[  2] =        38.794000000000;     BAS[ATNO][ 31].d[  2] =         0.001408474164;

  // Basis function  33 L = g
  InitBFNGauss(BAS[ATNO][ 32]);
  BAS[ATNO][ 32].l  = 4;
  BAS[ATNO][ 32].ng = 3;
  BAS[ATNO][ 32].a[  0] =         5.460000000000;     BAS[ATNO][ 32].d[  0] =         1.133680436298;
  BAS[ATNO][ 32].a[  1] =         1.880000000000;     BAS[ATNO][ 32].d[  1] =        -0.471301180189;
  BAS[ATNO][ 32].a[  2] =        38.794000000000;     BAS[ATNO][ 32].d[  2] =        -0.005161983029;

  // Basis function  34 L = g
  InitBFNGauss(BAS[ATNO][ 33]);
  BAS[ATNO][ 33].l  = 4;
  BAS[ATNO][ 33].ng = 3;
  BAS[ATNO][ 33].a[  0] =         5.460000000000;     BAS[ATNO][ 33].d[  0] =        -0.118387642225;
  BAS[ATNO][ 33].a[  1] =         1.880000000000;     BAS[ATNO][ 33].d[  1] =         0.046514116474;
  BAS[ATNO][ 33].a[  2] =        38.794000000000;     BAS[ATNO][ 33].d[  2] =         1.005996079363;

  // Basis function  35 L = h
  InitBFNGauss(BAS[ATNO][ 34]);
  BAS[ATNO][ 34].l  = 5;
  BAS[ATNO][ 34].ng = 1;
  BAS[ATNO][ 34].a[  0] =         3.776000000000;     BAS[ATNO][ 34].d[  0] =         1.000000000000;

-------
TIMINGS
-------

Total SCF time: 0 days 0 hours 0 min 1 sec 

Total time                  ....       1.770 sec
Sum of individual times     ....       1.532 sec  ( 86.6%)

Fock matrix formation       ....       1.057 sec  ( 59.7%)
  XC integration            ....       0.037 sec  (  3.5% of F)
    Basis function eval.    ....       0.005 sec  ( 13.2% of XC)
    Density eval.           ....       0.004 sec  (  9.9% of XC)
    XC-Functional eval.     ....       0.001 sec  (  3.8% of XC)
    XC-Potential eval.      ....       0.008 sec  ( 21.3% of XC)
Diagonalization             ....       0.009 sec  (  0.5%)
Density matrix formation    ....       0.003 sec  (  0.2%)
Population analysis         ....       0.002 sec  (  0.1%)
Initial guess               ....       0.085 sec  (  4.8%)
Orbital Transformation      ....       0.000 sec  (  0.0%)
Orbital Orthonormalization  ....       0.000 sec  (  0.0%)
DIIS solution               ....       0.002 sec  (  0.1%)
SOSCF solution              ....       0.004 sec  (  0.2%)
Grid generation             ....       0.371 sec  ( 21.0%)

-------------------------   --------------------
FINAL SINGLE POINT ENERGY       -93.213655294022
-------------------------   --------------------


                            ***************************************
                            *     ORCA property calculations      *
                            ***************************************

                                    ---------------------
                                    Active property flags
                                    ---------------------
   (+) Dipole Moment


------------------------------------------------------------------------------
                       ORCA ELECTRIC PROPERTIES CALCULATION
------------------------------------------------------------------------------

Dipole Moment Calculation                       ... on
Quadrupole Moment Calculation                   ... off
Polarizability Calculation                      ... off
GBWName                                         ... Ne_cc-pcv5z_2192.575824_.gbw
Electron density file                           ... Ne_cc-pcv5z_2192.575824_.scfp
The origin for moment calculation is the CENTER OF MASS  = ( 0.000000,  0.000000  0.000000)

-------------
DIPOLE MOMENT
-------------
                                X             Y             Z
Electronic contribution:     -0.00000      -0.00000      -0.00000
Nuclear contribution   :      0.00000       0.00000       0.00000
                        -----------------------------------------
Total Dipole Moment    :     -0.00000      -0.00000      -0.00000
                        -----------------------------------------
Magnitude (a.u.)       :      0.00000
Magnitude (Debye)      :      0.00000



--------------------
Rotational spectrum 
--------------------
 
Rotational constants in cm-1:     0.000000     0.000000     0.000000 
Rotational constants in MHz :     0.000000     0.000000     0.000000 

 Dipole components along the rotational axes: 
x,y,z [a.u.] :    -0.000000    -0.000000    -0.000000 
x,y,z [Debye]:    -0.000000    -0.000000    -0.000000 

 

Timings for individual modules:

Sum of individual times         ...        2.999 sec (=   0.050 min)
GTO integral calculation        ...        0.595 sec (=   0.010 min)  19.8 %
Relativistic integrals          ...        0.372 sec (=   0.006 min)  12.4 %
SCF iterations                  ...        2.031 sec (=   0.034 min)  67.7 %
                             ****ORCA TERMINATED NORMALLY****
TOTAL RUN TIME: 0 days 0 hours 0 minutes 3 seconds 338 msec
