
                                 *****************
                                 * O   R   C   A *
                                 *****************

           --- An Ab Initio, DFT and Semiempirical electronic structure package ---

                  #######################################################
                  #                        -***-                        #
                  #          Department of theory and spectroscopy      #
                  #               Directorship: Frank Neese             #
                  #        Max Planck Institute fuer Kohlenforschung    #
                  #                Kaiser Wilhelm Platz 1               #
                  #                 D-45470 Muelheim/Ruhr               #
                  #                      Germany                        #
                  #                                                     #
                  #                  All rights reserved                #
                  #                        -***-                        #
                  #######################################################


                         Program Version 4.2.1 -  RELEASE  -


 With contributions from (in alphabetic order):
   Daniel Aravena         : Magnetic Suceptibility
   Michael Atanasov       : Ab Initio Ligand Field Theory (pilot matlab implementation)
   Alexander A. Auer      : GIAO ZORA, VPT2
   Ute Becker             : Parallelization
   Giovanni Bistoni       : ED, misc. LED, open-shell LED, HFLD
   Martin Brehm           : Molecular dynamics
   Dmytro Bykov           : SCF Hessian
   Vijay G. Chilkuri      : MRCI spin determinant printing, contributions to CSF-ICE
   Dipayan Datta          : RHF DLPNO-CCSD density
   Achintya Kumar Dutta   : EOM-CC, STEOM-CC
   Dmitry Ganyushin       : Spin-Orbit,Spin-Spin,Magnetic field MRCI
   Miquel Garcia          : C-PCM Hessian, Gaussian charge scheme
   Yang Guo               : DLPNO-NEVPT2, CIM, IAO-localization
   Andreas Hansen         : Spin unrestricted coupled pair/coupled cluster methods
   Benjamin Helmich-Paris : CASSCF linear response (MC-RPA)
   Lee Huntington         : MR-EOM, pCC
   Robert Izsak           : Overlap fitted RIJCOSX, COSX-SCS-MP3, EOM
   Christian Kollmar      : KDIIS, OOCD, Brueckner-CCSD(T), CCSD density
   Simone Kossmann        : Meta GGA functionals, TD-DFT gradient, OOMP2, MP2 Hessian
   Martin Krupicka        : AUTO-CI
   Lucas Lang             : DCDCAS
   Dagmar Lenk            : GEPOL surface, SMD
   Dimitrios Liakos       : Extrapolation schemes; Compound Job, initial MDCI parallelization
   Dimitrios Manganas     : Further ROCIS development; embedding schemes
   Dimitrios Pantazis     : SARC Basis sets
   Taras Petrenko         : DFT Hessian,TD-DFT gradient, ASA, ECA, R-Raman, ABS, FL, XAS/XES, NRVS
   Peter Pinski           : DLPNO-MP2, DLPNO-MP2 Gradient
   Christoph Reimann      : Effective Core Potentials
   Marius Retegan         : Local ZFS, SOC
   Christoph Riplinger    : Optimizer, TS searches, QM/MM, DLPNO-CCSD(T), (RO)-DLPNO pert. Triples
   Tobias Risthaus        : Range-separated hybrids, TD-DFT gradient, RPA, STAB
   Michael Roemelt        : Original ROCIS implementation
   Masaaki Saitow         : Open-shell DLPNO-CCSD energy and density
   Barbara Sandhoefer     : DKH picture change effects
   Avijit Sen             : IP-ROCIS
   Kantharuban Sivalingam : CASSCF convergence, NEVPT2, FIC-MRCI
   Bernardo de Souza      : ESD, SOC TD-DFT
   Georgi Stoychev        : AutoAux, RI-MP2 NMR
   Willem Van den Heuvel  : Paramagnetic NMR
   Boris Wezisla          : Elementary symmetry handling
   Frank Wennmohs         : Technical directorship


 We gratefully acknowledge several colleagues who have allowed us to
 interface, adapt or use parts of their codes:
   Stefan Grimme, W. Hujo, H. Kruse,             : VdW corrections, initial TS optimization,
                  C. Bannwarth                     DFT functionals, gCP, sTDA/sTD-DF
   Ed Valeev, F. Pavosevic, A. Kumar             : LibInt (2-el integral package), F12 methods
   Garnet Chan, S. Sharma, J. Yang, R. Olivares  : DMRG
   Ulf Ekstrom                                   : XCFun DFT Library
   Mihaly Kallay                                 : mrcc  (arbitrary order and MRCC methods)
   Andreas Klamt, Michael Diedenhofen            : otool_cosmo (COSMO solvation model)
   Jiri Pittner, Ondrej Demel                    : Mk-CCSD
   Frank Weinhold                                : gennbo (NPA and NBO analysis)
   Christopher J. Cramer and Donald G. Truhlar   : smd solvation model
   Lars Goerigk                                  : TD-DFT with DH, B97 family of functionals
   V. Asgeirsson, H. Jonsson                     : NEB implementation
   FAccTs GmbH                                   : IRC, NEB, NEB-TS, Multilevel, MM, QM/MM, CI optimization
   S Lehtola, MJT Oliveira, MAL Marques          : LibXC Library


 Your calculation uses the libint2 library for the computation of 2-el integrals
 For citations please refer to: http://libint.valeyev.net

 Your ORCA version has been built with support for libXC version: 4.2.3
 For citations please refer to: https://tddft.org/programs/libxc/

 This ORCA versions uses:
   CBLAS   interface :  Fast vector & matrix operations
   LAPACKE interface :  Fast linear algebra routines
   SCALAPACK package :  Parallel linear algebra routines


----- Orbital basis set information -----
Your calculation utilizes the basis: def2-QZVPP
   F. Weigend and R. Ahlrichs, Phys. Chem. Chem. Phys. 7, 3297 (2005).

================================================================================
                                        WARNINGS
                       Please study these warnings very carefully!
================================================================================


INFO   : the flag for use of LIBINT has been found!

================================================================================
                                       INPUT FILE
================================================================================
NAME = Ne_def2-qzvpp_548.143956_.inp
|  1> ! LDA def2-qzvpp nori grid5 finalgrid6 verytightscf
|  2> %Pal NProcs 18 End
|  3> 
|  4> % REL
|  5>   Method ZORA
|  6>   ModelPot 1, 0, 0, 0
|  7>   velit 548.143956
|  8> END
|  9> 
| 10> *xyz 8 1
| 11> Ne 0.0 0.0 0.0
| 12> **                         ****END OF INPUT****
================================================================================

                       ****************************
                       * Single Point Calculation *
                       ****************************

---------------------------------
CARTESIAN COORDINATES (ANGSTROEM)
---------------------------------
  Ne     0.000000    0.000000    0.000000

----------------------------
CARTESIAN COORDINATES (A.U.)
----------------------------
  NO LB      ZA    FRAG     MASS         X           Y           Z
   0 Ne   10.0000    0    20.179    0.000000    0.000000    0.000000

--------------------------------
INTERNAL COORDINATES (ANGSTROEM)
--------------------------------
 Ne     0   0   0     0.000000000000     0.00000000     0.00000000

---------------------------
INTERNAL COORDINATES (A.U.)
---------------------------
 Ne     0   0   0     0.000000000000     0.00000000     0.00000000

---------------------
BASIS SET INFORMATION
---------------------
There are 1 groups of distinct atoms

 Group   1 Type Ne  : 15s9p3d2f1g contracted to 7s4p3d2f1g pattern {8211111/6111/111/11/1}

Atom   0Ne   basis set group =>   1


           ************************************************************
           *        Program running with 18 parallel MPI-processes    *
           *              working on a common directory               *
           ************************************************************
------------------------------------------------------------------------------
                           ORCA GTO INTEGRAL CALCULATION
------------------------------------------------------------------------------

                         BASIS SET STATISTICS AND STARTUP INFO

 # of primitive gaussian shells          ...   30
 # of primitive gaussian functions       ...   80
 # of contracted shells                  ...   17
 # of contracted basis functions         ...   57
 Highest angular momentum                ...    4
 Maximum contraction depth               ...    8
 Integral package used                   ... LIBINT
 Integral threshhold            Thresh   ...  1.000e-12
 Primitive cut-off              TCut     ...  1.000e-14


------------------------------ INTEGRAL EVALUATION ----------------------------


 * One electron integrals 
 Pre-screening matrix                    ... done
 Shell pair data                         ... done (   0.000 sec)



           ************************************************************
           *        Program running with 18 parallel MPI-processes    *
           *              working on a common directory               *
           ************************************************************
------------------------------------------------------------------------------
                          ORCA RELATIVISTIC HAMILTONIAN
------------------------------------------------------------------------------

Relativistic Method            ... ZORA(MP)
Treatment of potential         ... Van Wuellen
Nucleus model                  ... Point Nucleus
Speed of light used            ... 548.14395600000000


            *************************************************
            *         ZERO ORDER REGULAR APPROXIMATION      *
            *                     ZORA(MP)                  *
            *            Programmed by FN according to      *
            *                   C. van Wuellen              *
            *       J. Chem. Phys. (1998) vol 109, 392-399  *
            *************************************************

Terms included in model potential: +V(e,N)
Basis function cutoff value   ... 1.000000e-12
Loading the fitted atomic densities  (DKH4)  ... done
Calculating the cutoffs                      ... done
Number of fit functions                      ... 11
Setting up the integration grid ... done


           ************************************************************
           *        Program running with 18 parallel MPI-processes    *
           *              working on a common directory               *
           ************************************************************
-------------------------------------------------------------------------------
                                 ORCA SCF
-------------------------------------------------------------------------------

------------
SCF SETTINGS
------------
Hamiltonian:
 Density Functional     Method          .... DFT(GTOs)
 Exchange Functional    Exchange        .... Slater
   X-Alpha parameter    XAlpha          ....  0.666667
 Correlation Functional Correlation     .... VWN-5
 Gradients option       PostSCFGGA      .... off
   Density functional embedding theory  .... OFF

Relativistic Settings:
 Scalar relativistic method             .... ZORA
 Speed of light used       Velit        ....       548.143956
Orbital energies will be scaled


General Settings:
 Integral files         IntName         .... Ne_def2-qzvpp_548.143956_
 Hartree-Fock type      HFTyp           .... RHF
 Total Charge           Charge          ....    8
 Multiplicity           Mult            ....    1
 Number of Electrons    NEL             ....    2
 Basis Dimension        Dim             ....   57
 Nuclear Repulsion      ENuc            ....      0.0000000000 Eh

Convergence Acceleration:
 DIIS                   CNVDIIS         .... on
   Start iteration      DIISMaxIt       ....    12
   Startup error        DIISStart       ....  0.200000
   # of expansion vecs  DIISMaxEq       ....     5
   Bias factor          DIISBfac        ....   1.050
   Max. coefficient     DIISMaxC        ....  10.000
 Newton-Raphson         CNVNR           .... off
 SOSCF                  CNVSOSCF        .... on
   Start iteration      SOSCFMaxIt      ....   150
   Startup grad/error   SOSCFStart      ....  0.003300
 Level Shifting         CNVShift        .... on
   Level shift para.    LevelShift      ....    0.2500
   Turn off err/grad.   ShiftErr        ....    0.0010
 Zerner damping         CNVZerner       .... off
 Static damping         CNVDamp         .... on
   Fraction old density DampFac         ....    0.7000
   Max. Damping (<1)    DampMax         ....    0.9800
   Min. Damping (>=0)   DampMin         ....    0.0000
   Turn off err/grad.   DampErr         ....    0.1000
 Fernandez-Rico         CNVRico         .... off

SCF Procedure:
 Maximum # iterations   MaxIter         ....   125
 SCF integral mode      SCFMode         .... Direct
   Integral package                     .... LIBINT
 Reset frequency        DirectResetFreq ....    20
 Integral Threshold     Thresh          ....  1.000e-12 Eh
 Primitive CutOff       TCut            ....  1.000e-14 Eh

Convergence Tolerance:
 Convergence Check Mode ConvCheckMode   .... Total+1el-Energy
 Convergence forced     ConvForced      .... 0
 Energy Change          TolE            ....  1.000e-09 Eh
 1-El. energy change                    ....  1.000e-06 Eh
 Orbital Gradient       TolG            ....  2.000e-06
 Orbital Rotation angle TolX            ....  2.000e-06
 DIIS Error             TolErr          ....  1.000e-08


Diagonalization of the overlap matrix:
Smallest eigenvalue                        ... 5.309e-03
Time for diagonalization                   ...    0.001 sec
Threshold for overlap eigenvalues          ... 1.000e-08
Number of eigenvalues below threshold      ... 0
Time for construction of square roots      ...    0.001 sec
Total time needed                          ...    0.002 sec

-------------------
DFT GRID GENERATION
-------------------

General Integration Accuracy     IntAcc      ...  5.010
Radial Grid Type                 RadialGrid  ... Gauss-Chebyshev
Angular Grid (max. acc.)         AngularGrid ... Lebedev-434
Angular grid pruning method      GridPruning ... 3 (G Style)
Weight generation scheme         WeightScheme... Becke
Basis function cutoff            BFCut       ...    1.0000e-12
Integration weight cutoff        WCut        ...    1.0000e-14
Grids for H and He will be reduced by one unit

# of grid points (after initial pruning)     ...  10818 (   0.0 sec)
# of grid points (after weights+screening)   ...  10818 (   0.0 sec)
Grid point division into batches done        ...    0.1 sec
Reduced shell lists constructed in    0.1 sec

Total number of grid points                  ...    10818
Total number of batches                      ...      170
Average number of points per batch           ...       63
Average number of grid points per atom       ...    10818
Average number of shells per batch           ...     0.00 ( 0.00%)
Average number of basis functions per batch  ...     0.00 ( 0.00%)
Average number of large shells per batch     ...     0.00 ( -nan%)
Average number of large basis fcns per batch ...     0.00 ( -nan%)
Maximum spatial batch extension              ...  16.29, 16.29, 16.29 au
Average spatial batch extension              ...   0.85,  0.86,  0.85 au

Time for grid setup =    0.123 sec

------------------------------
INITIAL GUESS: MODEL POTENTIAL
------------------------------
Loading ZORA relativistic densities                ... done
Calculating cut-offs                               ... done
Setting up the integral package                    ... done
Initializing the effective Hamiltonian             ... done
Starting the Coulomb interaction                   ... done (   0.0 sec)
Reading the grid                                   ... done
Mapping shells                                     ... done
Starting the XC term evaluation                    ... done (   0.0 sec)
  promolecular density results
     # of electrons  =     10.000000334
     EX              =    -11.053709298
     EC              =     -0.746638772
     EX+EC           =    -11.800348070
Transforming the Hamiltonian                       ... done (   0.0 sec)
Diagonalizing the Hamiltonian                      ... done (   0.0 sec)
Back transforming the eigenvectors                 ... done (   0.0 sec)
Now organizing SCF variables                       ... done
                      ------------------
                      INITIAL GUESS DONE (   0.2 sec)
                      ------------------
--------------
SCF ITERATIONS
--------------
ITER       Energy         Delta-E        Max-DP      RMS-DP      [F,P]     Damp
               ***  Starting incremental Fock matrix formation  ***
  0    -93.2152375016   0.000000000000 0.00525089  0.00015882  0.8629195 0.7000
  1    -93.2191451031  -0.003907601502 0.00368943  0.00011112  0.5924799 0.7000
  2    -93.2218220289  -0.002676925789 0.00257073  0.00007706  0.4056596 0.7000
                      *** Initiating the SOSCF procedure ***
                      *** Re-Reading the Fockian *** 
                      *** Removing any level shift *** 
ITER      Energy       Delta-E        Grad      Rot      Max-DP    RMS-DP
  3    -93.22366858  -0.0018465485  0.003087  0.003087  0.005971  0.000178
               *** Restarting incremental Fock matrix formation ***
  4    -93.22789466  -0.0042260834  0.007031  0.000113  0.000428  0.000008
  5    -93.22789770  -0.0000030413  0.000376  0.000006  0.000023  0.000000
                  ***Gradient check signals convergence***
              ***Rediagonalizing the Fockian in SOSCF/NRSCF***

               *****************************************************
               *                     SUCCESS                       *
               *           SCF CONVERGED AFTER   6 CYCLES          *
               *****************************************************

Setting up the final grid:

General Integration Accuracy     IntAcc      ...  5.340
Radial Grid Type                 RadialGrid  ... Gauss-Chebyshev
Angular Grid (max. acc.)         AngularGrid ... Lebedev-590
Angular grid pruning method      GridPruning ... 3 (G Style)
Weight generation scheme         WeightScheme... Becke
Basis function cutoff            BFCut       ...    1.0000e-12
Integration weight cutoff        WCut        ...    1.0000e-14
Grids for H and He will be reduced by one unit

# of grid points (after initial pruning)     ...  16840 (   0.0 sec)
# of grid points (after weights+screening)   ...  16840 (   0.0 sec)
Grid point division into batches done        ...    0.2 sec
Reduced shell lists constructed in    0.2 sec

Total number of grid points                  ...    16840
Total number of batches                      ...      264
Average number of points per batch           ...       63
Average number of grid points per atom       ...    16840
Average number of shells per batch           ...     0.00 ( 0.00%)
Average number of basis functions per batch  ...     0.00 ( 0.00%)
Average number of large shells per batch     ...     0.00 ( -nan%)
Average number of large basis fcns per batch ...     0.00 ( -nan%)
Maximum spatial batch extension              ...  16.63, 16.63, 16.63 au
Average spatial batch extension              ...   0.74,  0.74,  0.69 au

Final grid set up in    0.2 sec
Final integration                            ... done (   0.0 sec)
Change in XC energy                          ...    -0.000000085
Integrated number of electrons               ...     1.999999998
Previous integrated no of electrons          ...     2.000000001

----------------
TOTAL SCF ENERGY
----------------

Total Energy       :          -93.22789780 Eh           -2536.86007 eV

Components:
Nuclear Repulsion  :            0.00000000 Eh               0.00000 eV
Electronic Energy  :          -93.22789780 Eh           -2536.86007 eV
One Electron Energy:          -99.86922301 Eh           -2717.57972 eV
Two Electron Energy:            6.64132521 Eh             180.71965 eV

Virial components:
Potential Energy   :         -186.32326809 Eh           -5070.11388 eV
Kinetic Energy     :           93.09537030 Eh            2533.25381 eV
Virial Ratio       :            2.00142357


DFT components:
N(Alpha)           :        0.999999998851 electrons
N(Beta)            :        0.999999998851 electrons
N(Total)           :        1.999999997703 electrons
E(X)               :       -5.147115227006 Eh       
E(C)               :       -0.202690471314 Eh       
E(XC)              :       -5.349805698321 Eh       
DFET-embed. en.    :        0.000000000000 Eh       

---------------
SCF CONVERGENCE
---------------

  Last Energy change         ...   -9.2705e-09  Tolerance :   1.0000e-09
  Last MAX-Density change    ...    3.7213e-09  Tolerance :   1.0000e-08
  Last RMS-Density change    ...    1.1706e-10  Tolerance :   1.0000e-09
  Last Orbital Gradient      ...    4.7760e-08  Tolerance :   2.0000e-06
  Last Orbital Rotation      ...    4.0053e-10  Tolerance :   2.0000e-06

             **** THE GBW FILE WAS UPDATED (Ne_def2-qzvpp_548.143956_.gbw) ****
             **** DENSITY FILE WAS UPDATED (Ne_def2-qzvpp_548.143956_.scfp) ****
             **** ENERGY FILE WAS UPDATED (Ne_def2-qzvpp_548.143956_.en.tmp) ****
             **** THE GBW FILE WAS UPDATED (Ne_def2-qzvpp_548.143956_.gbw) ****
             **** DENSITY FILE WAS UPDATED (Ne_def2-qzvpp_548.143956_.scfp) ****
----------------
ORBITAL ENERGIES
----------------

  NO   OCC          E(Eh)            E(eV) 
   0   2.0000     -41.485442     -1128.8763 
   1   0.0000      -9.050327      -246.2719 
   2   0.0000      -8.609573      -234.2784 
   3   0.0000      -8.609573      -234.2784 
   4   0.0000      -8.609573      -234.2784 
   5   0.0000      -3.829855      -104.2157 
   6   0.0000      -3.702328      -100.7455 
   7   0.0000      -3.702328      -100.7455 
   8   0.0000      -3.702328      -100.7455 
   9   0.0000      -3.584984       -97.5524 
  10   0.0000      -3.584983       -97.5524 
  11   0.0000      -3.584983       -97.5524 
  12   0.0000      -3.584983       -97.5524 
  13   0.0000      -3.584983       -97.5524 
  14   0.0000      -2.054626       -55.9092 
  15   0.0000      -2.054626       -55.9092 
  16   0.0000      -2.054626       -55.9092 
  17   0.0000      -1.493872       -40.6503 
  18   0.0000      -0.493379       -13.4255 
  19   0.0000      -0.493379       -13.4255 
  20   0.0000      -0.493379       -13.4255 
  21   0.0000      -0.425050       -11.5662 
  22   0.0000      -0.425050       -11.5662 
  23   0.0000      -0.425050       -11.5662 
  24   0.0000      -0.425050       -11.5662 
  25   0.0000      -0.425050       -11.5662 
  26   0.0000      -0.376222       -10.2375 
  27   0.0000      -0.376222       -10.2375 
  28   0.0000      -0.376222       -10.2375 
  29   0.0000      -0.376222       -10.2375 
  30   0.0000      -0.376222       -10.2375 
  31   0.0000      -0.376222       -10.2375 
  32   0.0000      -0.376222       -10.2375 
  33   0.0000       7.385370       200.9661 
  34   0.0000       7.385370       200.9661 
  35   0.0000       7.385370       200.9661 
  36   0.0000       7.385370       200.9661 
  37   0.0000       7.385370       200.9661 
  38   0.0000       7.385370       200.9661 
  39   0.0000       7.385370       200.9661 
  40   0.0000       7.385370       200.9661 
  41   0.0000       7.385370       200.9661 
  42   0.0000       8.932547       243.0670 
  43   0.0000      10.940919       297.7176 
  44   0.0000      10.940919       297.7176 
  45   0.0000      10.940919       297.7176 
  46   0.0000      10.940919       297.7176 
  47   0.0000      10.940919       297.7176 
  48   0.0000      10.940919       297.7176 
  49   0.0000      10.940919       297.7176 
  50   0.0000      11.303198       307.5757 
  51   0.0000      11.303198       307.5757 
  52   0.0000      11.303198       307.5757 
  53   0.0000      11.303198       307.5757 
  54   0.0000      11.303198       307.5757 
  55   0.0000      53.426916      1453.8203 
  56   0.0000     326.483713      8884.0735 

                    ********************************
                    * MULLIKEN POPULATION ANALYSIS *
                    ********************************

-----------------------
MULLIKEN ATOMIC CHARGES
-----------------------
   0 Ne:    8.000000
Sum of atomic charges:    8.0000000

--------------------------------
MULLIKEN REDUCED ORBITAL CHARGES
--------------------------------
  0 Nes       :     2.000000  s :     2.000000
      pz      :     0.000000  p :     0.000000
      px      :     0.000000
      py      :     0.000000
      dz2     :     0.000000  d :     0.000000
      dxz     :     0.000000
      dyz     :     0.000000
      dx2y2   :     0.000000
      dxy     :     0.000000
      f0      :     0.000000  f :     0.000000
      f+1     :     0.000000
      f-1     :     0.000000
      f+2     :     0.000000
      f-2     :     0.000000
      f+3     :     0.000000
      f-3     :     0.000000
      g0      :     0.000000  g :     0.000000
      g+1     :     0.000000
      g-1     :     0.000000
      g+2     :     0.000000
      g-2     :     0.000000
      g+3     :     0.000000
      g-3     :     0.000000
      g+4     :     0.000000
      g-4     :     0.000000


                     *******************************
                     * LOEWDIN POPULATION ANALYSIS *
                     *******************************

----------------------
LOEWDIN ATOMIC CHARGES
----------------------
   0 Ne:    8.000000

-------------------------------
LOEWDIN REDUCED ORBITAL CHARGES
-------------------------------
  0 Nes       :     2.000000  s :     2.000000
      pz      :     0.000000  p :     0.000000
      px      :     0.000000
      py      :     0.000000
      dz2     :     0.000000  d :     0.000000
      dxz     :     0.000000
      dyz     :     0.000000
      dx2y2   :     0.000000
      dxy     :     0.000000
      f0      :     0.000000  f :     0.000000
      f+1     :     0.000000
      f-1     :     0.000000
      f+2     :     0.000000
      f-2     :     0.000000
      f+3     :     0.000000
      f-3     :     0.000000
      g0      :     0.000000  g :     0.000000
      g+1     :     0.000000
      g-1     :     0.000000
      g+2     :     0.000000
      g-2     :     0.000000
      g+3     :     0.000000
      g-3     :     0.000000
      g+4     :     0.000000
      g-4     :     0.000000


                      *****************************
                      * MAYER POPULATION ANALYSIS *
                      *****************************

  NA   - Mulliken gross atomic population
  ZA   - Total nuclear charge
  QA   - Mulliken gross atomic charge
  VA   - Mayer's total valence
  BVA  - Mayer's bonded valence
  FA   - Mayer's free valence

  ATOM       NA         ZA         QA         VA         BVA        FA
  0 Ne     2.0000    10.0000     8.0000    -0.0000     0.0000    -0.0000

  Mayer bond orders larger than 0.100000


--------------------------
ATOM BASIS FOR ELEMENT Ne
--------------------------
 NewGTO Ne
 S 15
    1     160676.279550000007         0.000047984923
    2      23953.195038999998         0.000375374699
    3       5437.506371100000         0.001969600466
    4       1544.274102400000         0.008158909447
    5        507.888142690000         0.028345792253
    6        184.948477500000         0.083778177242
    7         72.522952039000         0.201044742099
    8         30.088713575000         0.353001267016
    9        120.684349400000        -0.000268612584
   10         36.074294857000        -0.002376051562
   11         13.052091210000         0.353732586959
   12          5.797478335300         0.121162769102
   13          2.047862689500         0.001963382312
   14          0.802145719900         0.000214065146
   15          0.305486722000        -0.000093266010
 S 15
    1     160676.279550000007         0.000015909474
    2      23953.195038999998         0.000124456049
    3       5437.506371100000         0.000653024012
    4       1544.274102400000         0.002705098761
    5        507.888142690000         0.009398090270
    6        184.948477500000         0.027776781308
    7         72.522952039000         0.066656688153
    8         30.088713575000         0.117038103695
    9        120.684349400000         0.004477447244
   10         36.074294857000         0.039605908847
   11         13.052091210000         0.262493087992
   12          5.797478335300        -0.018570459346
   13          2.047862689500        -0.816080947115
   14          0.802145719900        -0.313854346995
   15          0.305486722000         0.015546067832
 S 15
    1     160676.279550000007        -0.000008193600
    2      23953.195038999998        -0.000064096595
    3       5437.506371100000        -0.000336316442
    4       1544.274102400000        -0.001393163459
    5        507.888142690000        -0.004840147110
    6        184.948477500000        -0.014305428432
    7         72.522952039000        -0.034329120834
    8         30.088713575000        -0.060276250069
    9        120.684349400000        -0.003246292746
   10         36.074294857000        -0.028715553217
   11         13.052091210000        -0.140057622253
   12          5.797478335300        -0.031116793012
   13          2.047862689500         1.057056173345
   14          0.802145719900        -0.245675173748
   15          0.305486722000        -1.080154012245
 S 15
    1     160676.279550000007        -0.000008934033
    2      23953.195038999998        -0.000069888825
    3       5437.506371100000        -0.000366708421
    4       1544.274102400000        -0.001519059755
    5        507.888142690000        -0.005277537705
    6        184.948477500000        -0.015598170102
    7         72.522952039000        -0.037431347739
    8         30.088713575000        -0.065723246676
    9        120.684349400000        -0.006678378680
   10         36.074294857000        -0.059074567010
   11         13.052091210000        -0.069333397455
   12          5.797478335300        -0.348275118969
   13          2.047862689500         2.773558776711
   14          0.802145719900        -4.166041753892
   15          0.305486722000         2.208113900351
 S 15
    1     160676.279550000007        -0.000030811950
    2      23953.195038999998        -0.000241034596
    3       5437.506371100000        -0.001264714575
    4       1544.274102400000        -0.005238977078
    5        507.888142690000        -0.018201324190
    6        184.948477500000        -0.053795418749
    7         72.522952039000        -0.129094311246
    8         30.088713575000        -0.226668227970
    9        120.684349400000         0.017771545285
   10         36.074294857000         0.157200780776
   11         13.052091210000        -1.974785534953
   12          5.797478335300         4.835278746375
   13          2.047862689500        -4.860192330859
   14          0.802145719900         3.028637154027
   15          0.305486722000        -0.934919761192
 S 15
    1     160676.279550000007        -0.000008921873
    2      23953.195038999998        -0.000069793702
    3       5437.506371100000        -0.000366209306
    4       1544.274102400000        -0.001516992211
    5        507.888142690000        -0.005270354615
    6        184.948477500000        -0.015576939925
    7         72.522952039000        -0.037380401113
    8         30.088713575000        -0.065633792841
    9        120.684349400000        -0.215261724286
   10         36.074294857000        -1.904128796190
   11         13.052091210000         5.249135402971
   12          5.797478335300        -4.969959862637
   13          2.047862689500         2.726174718484
   14          0.802145719900        -1.363024246784
   15          0.305486722000         0.392197411699
 S 15
    1     160676.279550000007        -0.000554729987
    2      23953.195038999998        -0.004339521434
    3       5437.506371100000        -0.022769577875
    4       1544.274102400000        -0.094321121069
    5        507.888142690000        -0.327691699504
    6        184.948477500000        -0.968518115042
    7         72.522952039000        -2.324178933784
    8         30.088713575000        -4.080873241612
    9        120.684349400000         0.879305037216
   10         36.074294857000         7.778020210274
   11         13.052091210000        -2.964335576853
   12          5.797478335300         2.365516254175
   13          2.047862689500        -1.207848484340
   14          0.802145719900         0.605335791850
   15          0.305486722000        -0.176119078534
 P 9
    1        498.433974660000         0.000797396922
    2        118.141092170000         0.006695741045
    3         38.032529735000         0.033741577765
    4         14.183731950000         0.120452175290
    5          5.786419072100         0.309002206145
    6          2.459962216000         0.541260912529
    7          1.042199949800         0.127893318947
    8          0.429877489200         0.035110474879
    9          0.168897084500        -0.010950257285
 P 9
    1        498.433974660000         0.000536968685
    2        118.141092170000         0.004508925436
    3         38.032529735000         0.022721646076
    4         14.183731950000         0.081112736195
    5          5.786419072100         0.208082704777
    6          2.459962216000         0.364486183041
    7          1.042199949800        -0.346029289180
    8          0.429877489200        -0.798290150284
    9          0.168897084500        -0.026360037885
 P 9
    1        498.433974660000         0.000380111123
    2        118.141092170000         0.003191792663
    3         38.032529735000         0.016084272019
    4         14.183731950000         0.057418344992
    5          5.786419072100         0.147298255370
    6          2.459962216000         0.258013653398
    7          1.042199949800        -0.515048049634
    8          0.429877489200        -0.680343836184
    9          0.168897084500         1.362890850092
 P 9
    1        498.433974660000         0.000843195667
    2        118.141092170000         0.007080313052
    3         38.032529735000         0.035679535966
    4         14.183731950000         0.127370384111
    5          5.786419072100         0.326749845680
    6          2.459962216000         0.572348404395
    7          1.042199949800        -2.572557735554
    8          0.429877489200         2.844004152023
    9          0.168897084500        -1.312206332360
 D 3
    1          6.471000000000         0.061881822146
    2          2.213000000000         0.329544981645
    3          0.747000000000         0.740290287241
 D 3
    1          6.471000000000         0.068867982229
    2          2.213000000000         1.146167740455
    3          0.747000000000        -1.015488073485
 D 3
    1          6.471000000000         1.341015630198
    2          2.213000000000        -1.171216565007
    3          0.747000000000         0.450687513181
 F 2
    1          4.657000000000        -0.020700061469
    2          1.524000000000         1.010454054433
 F 2
    1          4.657000000000         1.164510549353
    2          1.524000000000        -0.579220092867
 G 1
    1          2.983000000000         1.000000000000
 end
  // -----------------------------------------------
  // The basis set
  // -----------------------------------------------
  BAS[ATNO] = new BFNGauss[NSH];
  // Basis function   1 L = s
  InitBFNGauss(BAS[ATNO][  0]);
  BAS[ATNO][  0].l  = 0;
  BAS[ATNO][  0].ng = 15;
  BAS[ATNO][  0].a[  0] =    160676.279550000007;     BAS[ATNO][  0].d[  0] =         0.000047984923;
  BAS[ATNO][  0].a[  1] =     23953.195038999998;     BAS[ATNO][  0].d[  1] =         0.000375374699;
  BAS[ATNO][  0].a[  2] =      5437.506371100000;     BAS[ATNO][  0].d[  2] =         0.001969600466;
  BAS[ATNO][  0].a[  3] =      1544.274102400000;     BAS[ATNO][  0].d[  3] =         0.008158909447;
  BAS[ATNO][  0].a[  4] =       507.888142690000;     BAS[ATNO][  0].d[  4] =         0.028345792253;
  BAS[ATNO][  0].a[  5] =       184.948477500000;     BAS[ATNO][  0].d[  5] =         0.083778177242;
  BAS[ATNO][  0].a[  6] =        72.522952039000;     BAS[ATNO][  0].d[  6] =         0.201044742099;
  BAS[ATNO][  0].a[  7] =        30.088713575000;     BAS[ATNO][  0].d[  7] =         0.353001267016;
  BAS[ATNO][  0].a[  8] =       120.684349400000;     BAS[ATNO][  0].d[  8] =        -0.000268612584;
  BAS[ATNO][  0].a[  9] =        36.074294857000;     BAS[ATNO][  0].d[  9] =        -0.002376051562;
  BAS[ATNO][  0].a[ 10] =        13.052091210000;     BAS[ATNO][  0].d[ 10] =         0.353732586959;
  BAS[ATNO][  0].a[ 11] =         5.797478335300;     BAS[ATNO][  0].d[ 11] =         0.121162769102;
  BAS[ATNO][  0].a[ 12] =         2.047862689500;     BAS[ATNO][  0].d[ 12] =         0.001963382312;
  BAS[ATNO][  0].a[ 13] =         0.802145719900;     BAS[ATNO][  0].d[ 13] =         0.000214065146;
  BAS[ATNO][  0].a[ 14] =         0.305486722000;     BAS[ATNO][  0].d[ 14] =        -0.000093266010;

  // Basis function   2 L = s
  InitBFNGauss(BAS[ATNO][  1]);
  BAS[ATNO][  1].l  = 0;
  BAS[ATNO][  1].ng = 15;
  BAS[ATNO][  1].a[  0] =    160676.279550000007;     BAS[ATNO][  1].d[  0] =        -0.000015909474;
  BAS[ATNO][  1].a[  1] =     23953.195038999998;     BAS[ATNO][  1].d[  1] =        -0.000124456049;
  BAS[ATNO][  1].a[  2] =      5437.506371100000;     BAS[ATNO][  1].d[  2] =        -0.000653024012;
  BAS[ATNO][  1].a[  3] =      1544.274102400000;     BAS[ATNO][  1].d[  3] =        -0.002705098761;
  BAS[ATNO][  1].a[  4] =       507.888142690000;     BAS[ATNO][  1].d[  4] =        -0.009398090270;
  BAS[ATNO][  1].a[  5] =       184.948477500000;     BAS[ATNO][  1].d[  5] =        -0.027776781308;
  BAS[ATNO][  1].a[  6] =        72.522952039000;     BAS[ATNO][  1].d[  6] =        -0.066656688153;
  BAS[ATNO][  1].a[  7] =        30.088713575000;     BAS[ATNO][  1].d[  7] =        -0.117038103695;
  BAS[ATNO][  1].a[  8] =       120.684349400000;     BAS[ATNO][  1].d[  8] =        -0.004477447244;
  BAS[ATNO][  1].a[  9] =        36.074294857000;     BAS[ATNO][  1].d[  9] =        -0.039605908847;
  BAS[ATNO][  1].a[ 10] =        13.052091210000;     BAS[ATNO][  1].d[ 10] =        -0.262493087992;
  BAS[ATNO][  1].a[ 11] =         5.797478335300;     BAS[ATNO][  1].d[ 11] =         0.018570459346;
  BAS[ATNO][  1].a[ 12] =         2.047862689500;     BAS[ATNO][  1].d[ 12] =         0.816080947115;
  BAS[ATNO][  1].a[ 13] =         0.802145719900;     BAS[ATNO][  1].d[ 13] =         0.313854346995;
  BAS[ATNO][  1].a[ 14] =         0.305486722000;     BAS[ATNO][  1].d[ 14] =        -0.015546067832;

  // Basis function   3 L = s
  InitBFNGauss(BAS[ATNO][  2]);
  BAS[ATNO][  2].l  = 0;
  BAS[ATNO][  2].ng = 15;
  BAS[ATNO][  2].a[  0] =    160676.279550000007;     BAS[ATNO][  2].d[  0] =         0.000008193600;
  BAS[ATNO][  2].a[  1] =     23953.195038999998;     BAS[ATNO][  2].d[  1] =         0.000064096595;
  BAS[ATNO][  2].a[  2] =      5437.506371100000;     BAS[ATNO][  2].d[  2] =         0.000336316442;
  BAS[ATNO][  2].a[  3] =      1544.274102400000;     BAS[ATNO][  2].d[  3] =         0.001393163459;
  BAS[ATNO][  2].a[  4] =       507.888142690000;     BAS[ATNO][  2].d[  4] =         0.004840147110;
  BAS[ATNO][  2].a[  5] =       184.948477500000;     BAS[ATNO][  2].d[  5] =         0.014305428432;
  BAS[ATNO][  2].a[  6] =        72.522952039000;     BAS[ATNO][  2].d[  6] =         0.034329120834;
  BAS[ATNO][  2].a[  7] =        30.088713575000;     BAS[ATNO][  2].d[  7] =         0.060276250069;
  BAS[ATNO][  2].a[  8] =       120.684349400000;     BAS[ATNO][  2].d[  8] =         0.003246292746;
  BAS[ATNO][  2].a[  9] =        36.074294857000;     BAS[ATNO][  2].d[  9] =         0.028715553217;
  BAS[ATNO][  2].a[ 10] =        13.052091210000;     BAS[ATNO][  2].d[ 10] =         0.140057622253;
  BAS[ATNO][  2].a[ 11] =         5.797478335300;     BAS[ATNO][  2].d[ 11] =         0.031116793012;
  BAS[ATNO][  2].a[ 12] =         2.047862689500;     BAS[ATNO][  2].d[ 12] =        -1.057056173345;
  BAS[ATNO][  2].a[ 13] =         0.802145719900;     BAS[ATNO][  2].d[ 13] =         0.245675173748;
  BAS[ATNO][  2].a[ 14] =         0.305486722000;     BAS[ATNO][  2].d[ 14] =         1.080154012245;

  // Basis function   4 L = s
  InitBFNGauss(BAS[ATNO][  3]);
  BAS[ATNO][  3].l  = 0;
  BAS[ATNO][  3].ng = 15;
  BAS[ATNO][  3].a[  0] =    160676.279550000007;     BAS[ATNO][  3].d[  0] =         0.000008934033;
  BAS[ATNO][  3].a[  1] =     23953.195038999998;     BAS[ATNO][  3].d[  1] =         0.000069888825;
  BAS[ATNO][  3].a[  2] =      5437.506371100000;     BAS[ATNO][  3].d[  2] =         0.000366708421;
  BAS[ATNO][  3].a[  3] =      1544.274102400000;     BAS[ATNO][  3].d[  3] =         0.001519059755;
  BAS[ATNO][  3].a[  4] =       507.888142690000;     BAS[ATNO][  3].d[  4] =         0.005277537705;
  BAS[ATNO][  3].a[  5] =       184.948477500000;     BAS[ATNO][  3].d[  5] =         0.015598170102;
  BAS[ATNO][  3].a[  6] =        72.522952039000;     BAS[ATNO][  3].d[  6] =         0.037431347739;
  BAS[ATNO][  3].a[  7] =        30.088713575000;     BAS[ATNO][  3].d[  7] =         0.065723246676;
  BAS[ATNO][  3].a[  8] =       120.684349400000;     BAS[ATNO][  3].d[  8] =         0.006678378680;
  BAS[ATNO][  3].a[  9] =        36.074294857000;     BAS[ATNO][  3].d[  9] =         0.059074567010;
  BAS[ATNO][  3].a[ 10] =        13.052091210000;     BAS[ATNO][  3].d[ 10] =         0.069333397455;
  BAS[ATNO][  3].a[ 11] =         5.797478335300;     BAS[ATNO][  3].d[ 11] =         0.348275118969;
  BAS[ATNO][  3].a[ 12] =         2.047862689500;     BAS[ATNO][  3].d[ 12] =        -2.773558776711;
  BAS[ATNO][  3].a[ 13] =         0.802145719900;     BAS[ATNO][  3].d[ 13] =         4.166041753892;
  BAS[ATNO][  3].a[ 14] =         0.305486722000;     BAS[ATNO][  3].d[ 14] =        -2.208113900351;

  // Basis function   5 L = s
  InitBFNGauss(BAS[ATNO][  4]);
  BAS[ATNO][  4].l  = 0;
  BAS[ATNO][  4].ng = 15;
  BAS[ATNO][  4].a[  0] =    160676.279550000007;     BAS[ATNO][  4].d[  0] =         0.000030811950;
  BAS[ATNO][  4].a[  1] =     23953.195038999998;     BAS[ATNO][  4].d[  1] =         0.000241034596;
  BAS[ATNO][  4].a[  2] =      5437.506371100000;     BAS[ATNO][  4].d[  2] =         0.001264714575;
  BAS[ATNO][  4].a[  3] =      1544.274102400000;     BAS[ATNO][  4].d[  3] =         0.005238977078;
  BAS[ATNO][  4].a[  4] =       507.888142690000;     BAS[ATNO][  4].d[  4] =         0.018201324190;
  BAS[ATNO][  4].a[  5] =       184.948477500000;     BAS[ATNO][  4].d[  5] =         0.053795418749;
  BAS[ATNO][  4].a[  6] =        72.522952039000;     BAS[ATNO][  4].d[  6] =         0.129094311246;
  BAS[ATNO][  4].a[  7] =        30.088713575000;     BAS[ATNO][  4].d[  7] =         0.226668227970;
  BAS[ATNO][  4].a[  8] =       120.684349400000;     BAS[ATNO][  4].d[  8] =        -0.017771545285;
  BAS[ATNO][  4].a[  9] =        36.074294857000;     BAS[ATNO][  4].d[  9] =        -0.157200780776;
  BAS[ATNO][  4].a[ 10] =        13.052091210000;     BAS[ATNO][  4].d[ 10] =         1.974785534953;
  BAS[ATNO][  4].a[ 11] =         5.797478335300;     BAS[ATNO][  4].d[ 11] =        -4.835278746375;
  BAS[ATNO][  4].a[ 12] =         2.047862689500;     BAS[ATNO][  4].d[ 12] =         4.860192330859;
  BAS[ATNO][  4].a[ 13] =         0.802145719900;     BAS[ATNO][  4].d[ 13] =        -3.028637154027;
  BAS[ATNO][  4].a[ 14] =         0.305486722000;     BAS[ATNO][  4].d[ 14] =         0.934919761192;

  // Basis function   6 L = s
  InitBFNGauss(BAS[ATNO][  5]);
  BAS[ATNO][  5].l  = 0;
  BAS[ATNO][  5].ng = 15;
  BAS[ATNO][  5].a[  0] =    160676.279550000007;     BAS[ATNO][  5].d[  0] =        -0.000008921873;
  BAS[ATNO][  5].a[  1] =     23953.195038999998;     BAS[ATNO][  5].d[  1] =        -0.000069793702;
  BAS[ATNO][  5].a[  2] =      5437.506371100000;     BAS[ATNO][  5].d[  2] =        -0.000366209306;
  BAS[ATNO][  5].a[  3] =      1544.274102400000;     BAS[ATNO][  5].d[  3] =        -0.001516992211;
  BAS[ATNO][  5].a[  4] =       507.888142690000;     BAS[ATNO][  5].d[  4] =        -0.005270354615;
  BAS[ATNO][  5].a[  5] =       184.948477500000;     BAS[ATNO][  5].d[  5] =        -0.015576939925;
  BAS[ATNO][  5].a[  6] =        72.522952039000;     BAS[ATNO][  5].d[  6] =        -0.037380401113;
  BAS[ATNO][  5].a[  7] =        30.088713575000;     BAS[ATNO][  5].d[  7] =        -0.065633792841;
  BAS[ATNO][  5].a[  8] =       120.684349400000;     BAS[ATNO][  5].d[  8] =        -0.215261724286;
  BAS[ATNO][  5].a[  9] =        36.074294857000;     BAS[ATNO][  5].d[  9] =        -1.904128796190;
  BAS[ATNO][  5].a[ 10] =        13.052091210000;     BAS[ATNO][  5].d[ 10] =         5.249135402971;
  BAS[ATNO][  5].a[ 11] =         5.797478335300;     BAS[ATNO][  5].d[ 11] =        -4.969959862637;
  BAS[ATNO][  5].a[ 12] =         2.047862689500;     BAS[ATNO][  5].d[ 12] =         2.726174718484;
  BAS[ATNO][  5].a[ 13] =         0.802145719900;     BAS[ATNO][  5].d[ 13] =        -1.363024246784;
  BAS[ATNO][  5].a[ 14] =         0.305486722000;     BAS[ATNO][  5].d[ 14] =         0.392197411699;

  // Basis function   7 L = s
  InitBFNGauss(BAS[ATNO][  6]);
  BAS[ATNO][  6].l  = 0;
  BAS[ATNO][  6].ng = 15;
  BAS[ATNO][  6].a[  0] =    160676.279550000007;     BAS[ATNO][  6].d[  0] =        -0.000554729987;
  BAS[ATNO][  6].a[  1] =     23953.195038999998;     BAS[ATNO][  6].d[  1] =        -0.004339521434;
  BAS[ATNO][  6].a[  2] =      5437.506371100000;     BAS[ATNO][  6].d[  2] =        -0.022769577875;
  BAS[ATNO][  6].a[  3] =      1544.274102400000;     BAS[ATNO][  6].d[  3] =        -0.094321121069;
  BAS[ATNO][  6].a[  4] =       507.888142690000;     BAS[ATNO][  6].d[  4] =        -0.327691699504;
  BAS[ATNO][  6].a[  5] =       184.948477500000;     BAS[ATNO][  6].d[  5] =        -0.968518115042;
  BAS[ATNO][  6].a[  6] =        72.522952039000;     BAS[ATNO][  6].d[  6] =        -2.324178933784;
  BAS[ATNO][  6].a[  7] =        30.088713575000;     BAS[ATNO][  6].d[  7] =        -4.080873241612;
  BAS[ATNO][  6].a[  8] =       120.684349400000;     BAS[ATNO][  6].d[  8] =         0.879305037216;
  BAS[ATNO][  6].a[  9] =        36.074294857000;     BAS[ATNO][  6].d[  9] =         7.778020210274;
  BAS[ATNO][  6].a[ 10] =        13.052091210000;     BAS[ATNO][  6].d[ 10] =        -2.964335576853;
  BAS[ATNO][  6].a[ 11] =         5.797478335300;     BAS[ATNO][  6].d[ 11] =         2.365516254175;
  BAS[ATNO][  6].a[ 12] =         2.047862689500;     BAS[ATNO][  6].d[ 12] =        -1.207848484340;
  BAS[ATNO][  6].a[ 13] =         0.802145719900;     BAS[ATNO][  6].d[ 13] =         0.605335791850;
  BAS[ATNO][  6].a[ 14] =         0.305486722000;     BAS[ATNO][  6].d[ 14] =        -0.176119078534;

  // Basis function   8 L = p
  InitBFNGauss(BAS[ATNO][  7]);
  BAS[ATNO][  7].l  = 1;
  BAS[ATNO][  7].ng = 9;
  BAS[ATNO][  7].a[  0] =       498.433974660000;     BAS[ATNO][  7].d[  0] =         0.000797396922;
  BAS[ATNO][  7].a[  1] =       118.141092170000;     BAS[ATNO][  7].d[  1] =         0.006695741045;
  BAS[ATNO][  7].a[  2] =        38.032529735000;     BAS[ATNO][  7].d[  2] =         0.033741577765;
  BAS[ATNO][  7].a[  3] =        14.183731950000;     BAS[ATNO][  7].d[  3] =         0.120452175290;
  BAS[ATNO][  7].a[  4] =         5.786419072100;     BAS[ATNO][  7].d[  4] =         0.309002206145;
  BAS[ATNO][  7].a[  5] =         2.459962216000;     BAS[ATNO][  7].d[  5] =         0.541260912529;
  BAS[ATNO][  7].a[  6] =         1.042199949800;     BAS[ATNO][  7].d[  6] =         0.127893318947;
  BAS[ATNO][  7].a[  7] =         0.429877489200;     BAS[ATNO][  7].d[  7] =         0.035110474879;
  BAS[ATNO][  7].a[  8] =         0.168897084500;     BAS[ATNO][  7].d[  8] =        -0.010950257285;

  // Basis function   9 L = p
  InitBFNGauss(BAS[ATNO][  8]);
  BAS[ATNO][  8].l  = 1;
  BAS[ATNO][  8].ng = 9;
  BAS[ATNO][  8].a[  0] =       498.433974660000;     BAS[ATNO][  8].d[  0] =        -0.000536968685;
  BAS[ATNO][  8].a[  1] =       118.141092170000;     BAS[ATNO][  8].d[  1] =        -0.004508925436;
  BAS[ATNO][  8].a[  2] =        38.032529735000;     BAS[ATNO][  8].d[  2] =        -0.022721646076;
  BAS[ATNO][  8].a[  3] =        14.183731950000;     BAS[ATNO][  8].d[  3] =        -0.081112736195;
  BAS[ATNO][  8].a[  4] =         5.786419072100;     BAS[ATNO][  8].d[  4] =        -0.208082704777;
  BAS[ATNO][  8].a[  5] =         2.459962216000;     BAS[ATNO][  8].d[  5] =        -0.364486183041;
  BAS[ATNO][  8].a[  6] =         1.042199949800;     BAS[ATNO][  8].d[  6] =         0.346029289180;
  BAS[ATNO][  8].a[  7] =         0.429877489200;     BAS[ATNO][  8].d[  7] =         0.798290150284;
  BAS[ATNO][  8].a[  8] =         0.168897084500;     BAS[ATNO][  8].d[  8] =         0.026360037885;

  // Basis function  10 L = p
  InitBFNGauss(BAS[ATNO][  9]);
  BAS[ATNO][  9].l  = 1;
  BAS[ATNO][  9].ng = 9;
  BAS[ATNO][  9].a[  0] =       498.433974660000;     BAS[ATNO][  9].d[  0] =         0.000380111123;
  BAS[ATNO][  9].a[  1] =       118.141092170000;     BAS[ATNO][  9].d[  1] =         0.003191792663;
  BAS[ATNO][  9].a[  2] =        38.032529735000;     BAS[ATNO][  9].d[  2] =         0.016084272019;
  BAS[ATNO][  9].a[  3] =        14.183731950000;     BAS[ATNO][  9].d[  3] =         0.057418344992;
  BAS[ATNO][  9].a[  4] =         5.786419072100;     BAS[ATNO][  9].d[  4] =         0.147298255370;
  BAS[ATNO][  9].a[  5] =         2.459962216000;     BAS[ATNO][  9].d[  5] =         0.258013653398;
  BAS[ATNO][  9].a[  6] =         1.042199949800;     BAS[ATNO][  9].d[  6] =        -0.515048049634;
  BAS[ATNO][  9].a[  7] =         0.429877489200;     BAS[ATNO][  9].d[  7] =        -0.680343836184;
  BAS[ATNO][  9].a[  8] =         0.168897084500;     BAS[ATNO][  9].d[  8] =         1.362890850092;

  // Basis function  11 L = p
  InitBFNGauss(BAS[ATNO][ 10]);
  BAS[ATNO][ 10].l  = 1;
  BAS[ATNO][ 10].ng = 9;
  BAS[ATNO][ 10].a[  0] =       498.433974660000;     BAS[ATNO][ 10].d[  0] =         0.000843195667;
  BAS[ATNO][ 10].a[  1] =       118.141092170000;     BAS[ATNO][ 10].d[  1] =         0.007080313052;
  BAS[ATNO][ 10].a[  2] =        38.032529735000;     BAS[ATNO][ 10].d[  2] =         0.035679535966;
  BAS[ATNO][ 10].a[  3] =        14.183731950000;     BAS[ATNO][ 10].d[  3] =         0.127370384111;
  BAS[ATNO][ 10].a[  4] =         5.786419072100;     BAS[ATNO][ 10].d[  4] =         0.326749845680;
  BAS[ATNO][ 10].a[  5] =         2.459962216000;     BAS[ATNO][ 10].d[  5] =         0.572348404395;
  BAS[ATNO][ 10].a[  6] =         1.042199949800;     BAS[ATNO][ 10].d[  6] =        -2.572557735554;
  BAS[ATNO][ 10].a[  7] =         0.429877489200;     BAS[ATNO][ 10].d[  7] =         2.844004152023;
  BAS[ATNO][ 10].a[  8] =         0.168897084500;     BAS[ATNO][ 10].d[  8] =        -1.312206332360;

  // Basis function  12 L = d
  InitBFNGauss(BAS[ATNO][ 11]);
  BAS[ATNO][ 11].l  = 2;
  BAS[ATNO][ 11].ng = 3;
  BAS[ATNO][ 11].a[  0] =         6.471000000000;     BAS[ATNO][ 11].d[  0] =         0.061881822146;
  BAS[ATNO][ 11].a[  1] =         2.213000000000;     BAS[ATNO][ 11].d[  1] =         0.329544981645;
  BAS[ATNO][ 11].a[  2] =         0.747000000000;     BAS[ATNO][ 11].d[  2] =         0.740290287241;

  // Basis function  13 L = d
  InitBFNGauss(BAS[ATNO][ 12]);
  BAS[ATNO][ 12].l  = 2;
  BAS[ATNO][ 12].ng = 3;
  BAS[ATNO][ 12].a[  0] =         6.471000000000;     BAS[ATNO][ 12].d[  0] =         0.068867982229;
  BAS[ATNO][ 12].a[  1] =         2.213000000000;     BAS[ATNO][ 12].d[  1] =         1.146167740455;
  BAS[ATNO][ 12].a[  2] =         0.747000000000;     BAS[ATNO][ 12].d[  2] =        -1.015488073485;

  // Basis function  14 L = d
  InitBFNGauss(BAS[ATNO][ 13]);
  BAS[ATNO][ 13].l  = 2;
  BAS[ATNO][ 13].ng = 3;
  BAS[ATNO][ 13].a[  0] =         6.471000000000;     BAS[ATNO][ 13].d[  0] =         1.341015630198;
  BAS[ATNO][ 13].a[  1] =         2.213000000000;     BAS[ATNO][ 13].d[  1] =        -1.171216565007;
  BAS[ATNO][ 13].a[  2] =         0.747000000000;     BAS[ATNO][ 13].d[  2] =         0.450687513181;

  // Basis function  15 L = f
  InitBFNGauss(BAS[ATNO][ 14]);
  BAS[ATNO][ 14].l  = 3;
  BAS[ATNO][ 14].ng = 2;
  BAS[ATNO][ 14].a[  0] =         4.657000000000;     BAS[ATNO][ 14].d[  0] =        -0.020700061469;
  BAS[ATNO][ 14].a[  1] =         1.524000000000;     BAS[ATNO][ 14].d[  1] =         1.010454054433;

  // Basis function  16 L = f
  InitBFNGauss(BAS[ATNO][ 15]);
  BAS[ATNO][ 15].l  = 3;
  BAS[ATNO][ 15].ng = 2;
  BAS[ATNO][ 15].a[  0] =         4.657000000000;     BAS[ATNO][ 15].d[  0] =         1.164510549353;
  BAS[ATNO][ 15].a[  1] =         1.524000000000;     BAS[ATNO][ 15].d[  1] =        -0.579220092867;

  // Basis function  17 L = g
  InitBFNGauss(BAS[ATNO][ 16]);
  BAS[ATNO][ 16].l  = 4;
  BAS[ATNO][ 16].ng = 1;
  BAS[ATNO][ 16].a[  0] =         2.983000000000;     BAS[ATNO][ 16].d[  0] =         1.000000000000;

-------
TIMINGS
-------

Total SCF time: 0 days 0 hours 0 min 1 sec 

Total time                  ....       1.506 sec
Sum of individual times     ....       1.317 sec  ( 87.4%)

Fock matrix formation       ....       0.900 sec  ( 59.8%)
  XC integration            ....       0.035 sec  (  3.9% of F)
    Basis function eval.    ....       0.003 sec  (  7.9% of XC)
    Density eval.           ....       0.001 sec  (  4.1% of XC)
    XC-Functional eval.     ....       0.001 sec  (  3.7% of XC)
    XC-Potential eval.      ....       0.002 sec  (  5.5% of XC)
Diagonalization             ....       0.002 sec  (  0.1%)
Density matrix formation    ....       0.001 sec  (  0.0%)
Population analysis         ....       0.001 sec  (  0.1%)
Initial guess               ....       0.096 sec  (  6.4%)
Orbital Transformation      ....       0.000 sec  (  0.0%)
Orbital Orthonormalization  ....       0.000 sec  (  0.0%)
DIIS solution               ....       0.000 sec  (  0.0%)
SOSCF solution              ....       0.001 sec  (  0.1%)
Grid generation             ....       0.316 sec  ( 21.0%)

-------------------------   --------------------
FINAL SINGLE POINT ENERGY       -93.227897796049
-------------------------   --------------------


                            ***************************************
                            *     ORCA property calculations      *
                            ***************************************

                                    ---------------------
                                    Active property flags
                                    ---------------------
   (+) Dipole Moment


------------------------------------------------------------------------------
                       ORCA ELECTRIC PROPERTIES CALCULATION
------------------------------------------------------------------------------

Dipole Moment Calculation                       ... on
Quadrupole Moment Calculation                   ... off
Polarizability Calculation                      ... off
GBWName                                         ... Ne_def2-qzvpp_548.143956_.gbw
Electron density file                           ... Ne_def2-qzvpp_548.143956_.scfp
The origin for moment calculation is the CENTER OF MASS  = ( 0.000000,  0.000000  0.000000)

-------------
DIPOLE MOMENT
-------------
                                X             Y             Z
Electronic contribution:      0.00000      -0.00000       0.00000
Nuclear contribution   :      0.00000       0.00000       0.00000
                        -----------------------------------------
Total Dipole Moment    :      0.00000      -0.00000       0.00000
                        -----------------------------------------
Magnitude (a.u.)       :      0.00000
Magnitude (Debye)      :      0.00000



--------------------
Rotational spectrum 
--------------------
 
Rotational constants in cm-1:     0.000000     0.000000     0.000000 
Rotational constants in MHz :     0.000000     0.000000     0.000000 

 Dipole components along the rotational axes: 
x,y,z [a.u.] :     0.000000    -0.000000     0.000000 
x,y,z [Debye]:     0.000000    -0.000000     0.000000 

 

Timings for individual modules:

Sum of individual times         ...        2.628 sec (=   0.044 min)
GTO integral calculation        ...        0.511 sec (=   0.009 min)  19.5 %
Relativistic integrals          ...        0.340 sec (=   0.006 min)  12.9 %
SCF iterations                  ...        1.776 sec (=   0.030 min)  67.6 %
                             ****ORCA TERMINATED NORMALLY****
TOTAL RUN TIME: 0 days 0 hours 0 minutes 2 seconds 963 msec
