
                                 *****************
                                 * O   R   C   A *
                                 *****************

           --- An Ab Initio, DFT and Semiempirical electronic structure package ---

                  #######################################################
                  #                        -***-                        #
                  #          Department of theory and spectroscopy      #
                  #               Directorship: Frank Neese             #
                  #        Max Planck Institute fuer Kohlenforschung    #
                  #                Kaiser Wilhelm Platz 1               #
                  #                 D-45470 Muelheim/Ruhr               #
                  #                      Germany                        #
                  #                                                     #
                  #                  All rights reserved                #
                  #                        -***-                        #
                  #######################################################


                         Program Version 4.2.1 -  RELEASE  -


 With contributions from (in alphabetic order):
   Daniel Aravena         : Magnetic Suceptibility
   Michael Atanasov       : Ab Initio Ligand Field Theory (pilot matlab implementation)
   Alexander A. Auer      : GIAO ZORA, VPT2
   Ute Becker             : Parallelization
   Giovanni Bistoni       : ED, misc. LED, open-shell LED, HFLD
   Martin Brehm           : Molecular dynamics
   Dmytro Bykov           : SCF Hessian
   Vijay G. Chilkuri      : MRCI spin determinant printing, contributions to CSF-ICE
   Dipayan Datta          : RHF DLPNO-CCSD density
   Achintya Kumar Dutta   : EOM-CC, STEOM-CC
   Dmitry Ganyushin       : Spin-Orbit,Spin-Spin,Magnetic field MRCI
   Miquel Garcia          : C-PCM Hessian, Gaussian charge scheme
   Yang Guo               : DLPNO-NEVPT2, CIM, IAO-localization
   Andreas Hansen         : Spin unrestricted coupled pair/coupled cluster methods
   Benjamin Helmich-Paris : CASSCF linear response (MC-RPA)
   Lee Huntington         : MR-EOM, pCC
   Robert Izsak           : Overlap fitted RIJCOSX, COSX-SCS-MP3, EOM
   Christian Kollmar      : KDIIS, OOCD, Brueckner-CCSD(T), CCSD density
   Simone Kossmann        : Meta GGA functionals, TD-DFT gradient, OOMP2, MP2 Hessian
   Martin Krupicka        : AUTO-CI
   Lucas Lang             : DCDCAS
   Dagmar Lenk            : GEPOL surface, SMD
   Dimitrios Liakos       : Extrapolation schemes; Compound Job, initial MDCI parallelization
   Dimitrios Manganas     : Further ROCIS development; embedding schemes
   Dimitrios Pantazis     : SARC Basis sets
   Taras Petrenko         : DFT Hessian,TD-DFT gradient, ASA, ECA, R-Raman, ABS, FL, XAS/XES, NRVS
   Peter Pinski           : DLPNO-MP2, DLPNO-MP2 Gradient
   Christoph Reimann      : Effective Core Potentials
   Marius Retegan         : Local ZFS, SOC
   Christoph Riplinger    : Optimizer, TS searches, QM/MM, DLPNO-CCSD(T), (RO)-DLPNO pert. Triples
   Tobias Risthaus        : Range-separated hybrids, TD-DFT gradient, RPA, STAB
   Michael Roemelt        : Original ROCIS implementation
   Masaaki Saitow         : Open-shell DLPNO-CCSD energy and density
   Barbara Sandhoefer     : DKH picture change effects
   Avijit Sen             : IP-ROCIS
   Kantharuban Sivalingam : CASSCF convergence, NEVPT2, FIC-MRCI
   Bernardo de Souza      : ESD, SOC TD-DFT
   Georgi Stoychev        : AutoAux, RI-MP2 NMR
   Willem Van den Heuvel  : Paramagnetic NMR
   Boris Wezisla          : Elementary symmetry handling
   Frank Wennmohs         : Technical directorship


 We gratefully acknowledge several colleagues who have allowed us to
 interface, adapt or use parts of their codes:
   Stefan Grimme, W. Hujo, H. Kruse,             : VdW corrections, initial TS optimization,
                  C. Bannwarth                     DFT functionals, gCP, sTDA/sTD-DF
   Ed Valeev, F. Pavosevic, A. Kumar             : LibInt (2-el integral package), F12 methods
   Garnet Chan, S. Sharma, J. Yang, R. Olivares  : DMRG
   Ulf Ekstrom                                   : XCFun DFT Library
   Mihaly Kallay                                 : mrcc  (arbitrary order and MRCC methods)
   Andreas Klamt, Michael Diedenhofen            : otool_cosmo (COSMO solvation model)
   Jiri Pittner, Ondrej Demel                    : Mk-CCSD
   Frank Weinhold                                : gennbo (NPA and NBO analysis)
   Christopher J. Cramer and Donald G. Truhlar   : smd solvation model
   Lars Goerigk                                  : TD-DFT with DH, B97 family of functionals
   V. Asgeirsson, H. Jonsson                     : NEB implementation
   FAccTs GmbH                                   : IRC, NEB, NEB-TS, Multilevel, MM, QM/MM, CI optimization
   S Lehtola, MJT Oliveira, MAL Marques          : LibXC Library


 Your calculation uses the libint2 library for the computation of 2-el integrals
 For citations please refer to: http://libint.valeyev.net

 Your ORCA version has been built with support for libXC version: 4.2.3
 For citations please refer to: https://tddft.org/programs/libxc/

 This ORCA versions uses:
   CBLAS   interface :  Fast vector & matrix operations
   LAPACKE interface :  Fast linear algebra routines
   SCALAPACK package :  Parallel linear algebra routines


----- Orbital basis set information -----
Your calculation utilizes the basis: def2-QZVPP
   F. Weigend and R. Ahlrichs, Phys. Chem. Chem. Phys. 7, 3297 (2005).

================================================================================
                                        WARNINGS
                       Please study these warnings very carefully!
================================================================================


INFO   : the flag for use of LIBINT has been found!

================================================================================
                                       INPUT FILE
================================================================================
NAME = Ne_def2-qzvpp_68.5179945_.inp
|  1> ! LDA def2-qzvpp nori grid5 finalgrid6 verytightscf
|  2> %Pal NProcs 18 End
|  3> 
|  4> % REL
|  5>   Method ZORA
|  6>   ModelPot 1, 0, 0, 0
|  7>   velit 68.5179945
|  8> END
|  9> 
| 10> *xyz 8 1
| 11> Ne 0.0 0.0 0.0
| 12> **                         ****END OF INPUT****
================================================================================

                       ****************************
                       * Single Point Calculation *
                       ****************************

---------------------------------
CARTESIAN COORDINATES (ANGSTROEM)
---------------------------------
  Ne     0.000000    0.000000    0.000000

----------------------------
CARTESIAN COORDINATES (A.U.)
----------------------------
  NO LB      ZA    FRAG     MASS         X           Y           Z
   0 Ne   10.0000    0    20.179    0.000000    0.000000    0.000000

--------------------------------
INTERNAL COORDINATES (ANGSTROEM)
--------------------------------
 Ne     0   0   0     0.000000000000     0.00000000     0.00000000

---------------------------
INTERNAL COORDINATES (A.U.)
---------------------------
 Ne     0   0   0     0.000000000000     0.00000000     0.00000000

---------------------
BASIS SET INFORMATION
---------------------
There are 1 groups of distinct atoms

 Group   1 Type Ne  : 15s9p3d2f1g contracted to 7s4p3d2f1g pattern {8211111/6111/111/11/1}

Atom   0Ne   basis set group =>   1


           ************************************************************
           *        Program running with 18 parallel MPI-processes    *
           *              working on a common directory               *
           ************************************************************
------------------------------------------------------------------------------
                           ORCA GTO INTEGRAL CALCULATION
------------------------------------------------------------------------------

                         BASIS SET STATISTICS AND STARTUP INFO

 # of primitive gaussian shells          ...   30
 # of primitive gaussian functions       ...   80
 # of contracted shells                  ...   17
 # of contracted basis functions         ...   57
 Highest angular momentum                ...    4
 Maximum contraction depth               ...    8
 Integral package used                   ... LIBINT
 Integral threshhold            Thresh   ...  1.000e-12
 Primitive cut-off              TCut     ...  1.000e-14


------------------------------ INTEGRAL EVALUATION ----------------------------


 * One electron integrals 
 Pre-screening matrix                    ... done
 Shell pair data                         ... done (   0.000 sec)



           ************************************************************
           *        Program running with 18 parallel MPI-processes    *
           *              working on a common directory               *
           ************************************************************
------------------------------------------------------------------------------
                          ORCA RELATIVISTIC HAMILTONIAN
------------------------------------------------------------------------------

Relativistic Method            ... ZORA(MP)
Treatment of potential         ... Van Wuellen
Nucleus model                  ... Point Nucleus
Speed of light used            ...  68.51799450000000


            *************************************************
            *         ZERO ORDER REGULAR APPROXIMATION      *
            *                     ZORA(MP)                  *
            *            Programmed by FN according to      *
            *                   C. van Wuellen              *
            *       J. Chem. Phys. (1998) vol 109, 392-399  *
            *************************************************

Terms included in model potential: +V(e,N)
Basis function cutoff value   ... 1.000000e-12
Loading the fitted atomic densities  (DKH4)  ... done
Calculating the cutoffs                      ... done
Number of fit functions                      ... 11
Setting up the integration grid ... done


           ************************************************************
           *        Program running with 18 parallel MPI-processes    *
           *              working on a common directory               *
           ************************************************************
-------------------------------------------------------------------------------
                                 ORCA SCF
-------------------------------------------------------------------------------

------------
SCF SETTINGS
------------
Hamiltonian:
 Density Functional     Method          .... DFT(GTOs)
 Exchange Functional    Exchange        .... Slater
   X-Alpha parameter    XAlpha          ....  0.666667
 Correlation Functional Correlation     .... VWN-5
 Gradients option       PostSCFGGA      .... off
   Density functional embedding theory  .... OFF

Relativistic Settings:
 Scalar relativistic method             .... ZORA
 Speed of light used       Velit        ....       68.5179945
Orbital energies will be scaled


General Settings:
 Integral files         IntName         .... Ne_def2-qzvpp_68.5179945_
 Hartree-Fock type      HFTyp           .... RHF
 Total Charge           Charge          ....    8
 Multiplicity           Mult            ....    1
 Number of Electrons    NEL             ....    2
 Basis Dimension        Dim             ....   57
 Nuclear Repulsion      ENuc            ....      0.0000000000 Eh

Convergence Acceleration:
 DIIS                   CNVDIIS         .... on
   Start iteration      DIISMaxIt       ....    12
   Startup error        DIISStart       ....  0.200000
   # of expansion vecs  DIISMaxEq       ....     5
   Bias factor          DIISBfac        ....   1.050
   Max. coefficient     DIISMaxC        ....  10.000
 Newton-Raphson         CNVNR           .... off
 SOSCF                  CNVSOSCF        .... on
   Start iteration      SOSCFMaxIt      ....   150
   Startup grad/error   SOSCFStart      ....  0.003300
 Level Shifting         CNVShift        .... on
   Level shift para.    LevelShift      ....    0.2500
   Turn off err/grad.   ShiftErr        ....    0.0010
 Zerner damping         CNVZerner       .... off
 Static damping         CNVDamp         .... on
   Fraction old density DampFac         ....    0.7000
   Max. Damping (<1)    DampMax         ....    0.9800
   Min. Damping (>=0)   DampMin         ....    0.0000
   Turn off err/grad.   DampErr         ....    0.1000
 Fernandez-Rico         CNVRico         .... off

SCF Procedure:
 Maximum # iterations   MaxIter         ....   125
 SCF integral mode      SCFMode         .... Direct
   Integral package                     .... LIBINT
 Reset frequency        DirectResetFreq ....    20
 Integral Threshold     Thresh          ....  1.000e-12 Eh
 Primitive CutOff       TCut            ....  1.000e-14 Eh

Convergence Tolerance:
 Convergence Check Mode ConvCheckMode   .... Total+1el-Energy
 Convergence forced     ConvForced      .... 0
 Energy Change          TolE            ....  1.000e-09 Eh
 1-El. energy change                    ....  1.000e-06 Eh
 Orbital Gradient       TolG            ....  2.000e-06
 Orbital Rotation angle TolX            ....  2.000e-06
 DIIS Error             TolErr          ....  1.000e-08


Diagonalization of the overlap matrix:
Smallest eigenvalue                        ... 5.309e-03
Time for diagonalization                   ...    0.001 sec
Threshold for overlap eigenvalues          ... 1.000e-08
Number of eigenvalues below threshold      ... 0
Time for construction of square roots      ...    0.001 sec
Total time needed                          ...    0.002 sec

-------------------
DFT GRID GENERATION
-------------------

General Integration Accuracy     IntAcc      ...  5.010
Radial Grid Type                 RadialGrid  ... Gauss-Chebyshev
Angular Grid (max. acc.)         AngularGrid ... Lebedev-434
Angular grid pruning method      GridPruning ... 3 (G Style)
Weight generation scheme         WeightScheme... Becke
Basis function cutoff            BFCut       ...    1.0000e-12
Integration weight cutoff        WCut        ...    1.0000e-14
Grids for H and He will be reduced by one unit

# of grid points (after initial pruning)     ...  10818 (   0.0 sec)
# of grid points (after weights+screening)   ...  10818 (   0.0 sec)
Grid point division into batches done        ...    0.1 sec
Reduced shell lists constructed in    0.1 sec

Total number of grid points                  ...    10818
Total number of batches                      ...      170
Average number of points per batch           ...       63
Average number of grid points per atom       ...    10818
Average number of shells per batch           ...     0.00 ( 0.00%)
Average number of basis functions per batch  ...     0.00 ( 0.00%)
Average number of large shells per batch     ...     0.00 ( -nan%)
Average number of large basis fcns per batch ...     0.00 ( -nan%)
Maximum spatial batch extension              ...  16.29, 16.29, 16.29 au
Average spatial batch extension              ...   0.85,  0.86,  0.85 au

Time for grid setup =    0.130 sec

------------------------------
INITIAL GUESS: MODEL POTENTIAL
------------------------------
Loading ZORA relativistic densities                ... done
Calculating cut-offs                               ... done
Setting up the integral package                    ... done
Initializing the effective Hamiltonian             ... done
Starting the Coulomb interaction                   ... done (   0.0 sec)
Reading the grid                                   ... done
Mapping shells                                     ... done
Starting the XC term evaluation                    ... done (   0.0 sec)
  promolecular density results
     # of electrons  =     10.000000334
     EX              =    -11.053709298
     EC              =     -0.746638772
     EX+EC           =    -11.800348070
Transforming the Hamiltonian                       ... done (   0.0 sec)
Diagonalizing the Hamiltonian                      ... done (   0.0 sec)
Back transforming the eigenvectors                 ... done (   0.0 sec)
Now organizing SCF variables                       ... done
                      ------------------
                      INITIAL GUESS DONE (   0.2 sec)
                      ------------------
--------------
SCF ITERATIONS
--------------
ITER       Energy         Delta-E        Max-DP      RMS-DP      [F,P]     Damp
               ***  Starting incremental Fock matrix formation  ***
  0    -94.1867089932   0.000000000000 0.00532459  0.00015543  0.7912849 0.7000
  1    -94.1900371870  -0.003328193789 0.00374194  0.00010876  0.5434472 0.7000
  2    -94.1923187592  -0.002281572247 0.00260837  0.00007544  0.3721903 0.7000
                      *** Initiating the SOSCF procedure ***
                      *** Re-Reading the Fockian *** 
                      *** Removing any level shift *** 
ITER      Energy       Delta-E        Grad      Rot      Max-DP    RMS-DP
  3    -94.19389336  -0.0015745974  0.002834  0.002834  0.006061  0.000175
               *** Restarting incremental Fock matrix formation ***
  4    -94.19749944  -0.0036060832  0.006451  0.000102  0.000442  0.000009
  5    -94.19750198  -0.0000025356  0.000348  0.000006  0.000024  0.000000
                  ***Gradient check signals convergence***
              ***Rediagonalizing the Fockian in SOSCF/NRSCF***

               *****************************************************
               *                     SUCCESS                       *
               *           SCF CONVERGED AFTER   6 CYCLES          *
               *****************************************************

Setting up the final grid:

General Integration Accuracy     IntAcc      ...  5.340
Radial Grid Type                 RadialGrid  ... Gauss-Chebyshev
Angular Grid (max. acc.)         AngularGrid ... Lebedev-590
Angular grid pruning method      GridPruning ... 3 (G Style)
Weight generation scheme         WeightScheme... Becke
Basis function cutoff            BFCut       ...    1.0000e-12
Integration weight cutoff        WCut        ...    1.0000e-14
Grids for H and He will be reduced by one unit

# of grid points (after initial pruning)     ...  16840 (   0.0 sec)
# of grid points (after weights+screening)   ...  16840 (   0.0 sec)
Grid point division into batches done        ...    0.2 sec
Reduced shell lists constructed in    0.2 sec

Total number of grid points                  ...    16840
Total number of batches                      ...      264
Average number of points per batch           ...       63
Average number of grid points per atom       ...    16840
Average number of shells per batch           ...     0.00 ( 0.00%)
Average number of basis functions per batch  ...     0.00 ( 0.00%)
Average number of large shells per batch     ...     0.00 ( -nan%)
Average number of large basis fcns per batch ...     0.00 ( -nan%)
Maximum spatial batch extension              ...  16.63, 16.63, 16.63 au
Average spatial batch extension              ...   0.74,  0.74,  0.69 au

Final grid set up in    0.2 sec
Final integration                            ... done (   0.0 sec)
Change in XC energy                          ...    -0.000000091
Integrated number of electrons               ...     1.999999998
Previous integrated no of electrons          ...     2.000000001

----------------
TOTAL SCF ENERGY
----------------

Total Energy       :          -94.19750207 Eh           -2563.24434 eV

Components:
Nuclear Repulsion  :            0.00000000 Eh               0.00000 eV
Electronic Energy  :          -94.19750207 Eh           -2563.24434 eV
One Electron Energy:         -100.92437406 Eh           -2746.29184 eV
Two Electron Energy:            6.72687199 Eh             183.04749 eV

Virial components:
Potential Energy   :         -189.22549814 Eh           -5149.08758 eV
Kinetic Energy     :           95.02799607 Eh            2585.84323 eV
Virial Ratio       :            1.99126053


DFT components:
N(Alpha)           :        0.999999999149 electrons
N(Beta)            :        0.999999999149 electrons
N(Total)           :        1.999999998297 electrons
E(X)               :       -5.215475755550 Eh       
E(C)               :       -0.203356924615 Eh       
E(XC)              :       -5.418832680164 Eh       
DFET-embed. en.    :        0.000000000000 Eh       

---------------
SCF CONVERGENCE
---------------

  Last Energy change         ...   -7.9117e-09  Tolerance :   1.0000e-09
  Last MAX-Density change    ...    3.9217e-09  Tolerance :   1.0000e-08
  Last RMS-Density change    ...    1.2284e-10  Tolerance :   1.0000e-09
  Last Orbital Gradient      ...    4.5471e-08  Tolerance :   2.0000e-06
  Last Orbital Rotation      ...    3.9890e-10  Tolerance :   2.0000e-06

             **** THE GBW FILE WAS UPDATED (Ne_def2-qzvpp_68.5179945_.gbw) ****
             **** DENSITY FILE WAS UPDATED (Ne_def2-qzvpp_68.5179945_.scfp) ****
             **** ENERGY FILE WAS UPDATED (Ne_def2-qzvpp_68.5179945_.en.tmp) ****
             **** THE GBW FILE WAS UPDATED (Ne_def2-qzvpp_68.5179945_.gbw) ****
             **** DENSITY FILE WAS UPDATED (Ne_def2-qzvpp_68.5179945_.scfp) ****
----------------
ORBITAL ENERGIES
----------------

  NO   OCC          E(Eh)            E(eV) 
   0   2.0000     -41.904358     -1140.2756 
   1   0.0000      -9.117012      -248.0865 
   2   0.0000      -8.636374      -235.0077 
   3   0.0000      -8.636374      -235.0077 
   4   0.0000      -8.636374      -235.0077 
   5   0.0000      -3.850310      -104.7723 
   6   0.0000      -3.712871      -101.0324 
   7   0.0000      -3.712871      -101.0324 
   8   0.0000      -3.712871      -101.0324 
   9   0.0000      -3.589132       -97.6652 
  10   0.0000      -3.589132       -97.6652 
  11   0.0000      -3.589132       -97.6652 
  12   0.0000      -3.589132       -97.6652 
  13   0.0000      -3.589132       -97.6652 
  14   0.0000      -2.059985       -56.0550 
  15   0.0000      -2.059985       -56.0550 
  16   0.0000      -2.059985       -56.0550 
  17   0.0000      -1.523545       -41.4578 
  18   0.0000      -0.514908       -14.0113 
  19   0.0000      -0.514908       -14.0113 
  20   0.0000      -0.514908       -14.0113 
  21   0.0000      -0.435980       -11.8636 
  22   0.0000      -0.435980       -11.8636 
  23   0.0000      -0.435980       -11.8636 
  24   0.0000      -0.435980       -11.8636 
  25   0.0000      -0.435980       -11.8636 
  26   0.0000      -0.382423       -10.4063 
  27   0.0000      -0.382423       -10.4063 
  28   0.0000      -0.382423       -10.4063 
  29   0.0000      -0.382423       -10.4063 
  30   0.0000      -0.382423       -10.4063 
  31   0.0000      -0.382423       -10.4063 
  32   0.0000      -0.382423       -10.4063 
  33   0.0000       7.365463       200.4244 
  34   0.0000       7.365463       200.4244 
  35   0.0000       7.365463       200.4244 
  36   0.0000       7.365463       200.4244 
  37   0.0000       7.365463       200.4244 
  38   0.0000       7.365463       200.4244 
  39   0.0000       7.365463       200.4244 
  40   0.0000       7.365463       200.4244 
  41   0.0000       7.365463       200.4244 
  42   0.0000       8.743828       237.9317 
  43   0.0000      10.902466       296.6712 
  44   0.0000      10.902466       296.6712 
  45   0.0000      10.902466       296.6712 
  46   0.0000      10.902466       296.6712 
  47   0.0000      10.902466       296.6712 
  48   0.0000      10.902466       296.6712 
  49   0.0000      10.902466       296.6712 
  50   0.0000      11.240790       305.8774 
  51   0.0000      11.240790       305.8774 
  52   0.0000      11.240790       305.8774 
  53   0.0000      11.240790       305.8774 
  54   0.0000      11.240790       305.8774 
  55   0.0000      52.601596      1431.3622 
  56   0.0000     313.142037      8521.0280 

                    ********************************
                    * MULLIKEN POPULATION ANALYSIS *
                    ********************************

-----------------------
MULLIKEN ATOMIC CHARGES
-----------------------
   0 Ne:    8.000000
Sum of atomic charges:    8.0000000

--------------------------------
MULLIKEN REDUCED ORBITAL CHARGES
--------------------------------
  0 Nes       :     2.000000  s :     2.000000
      pz      :     0.000000  p :     0.000000
      px      :     0.000000
      py      :     0.000000
      dz2     :     0.000000  d :     0.000000
      dxz     :     0.000000
      dyz     :     0.000000
      dx2y2   :     0.000000
      dxy     :     0.000000
      f0      :     0.000000  f :     0.000000
      f+1     :     0.000000
      f-1     :     0.000000
      f+2     :     0.000000
      f-2     :     0.000000
      f+3     :     0.000000
      f-3     :     0.000000
      g0      :     0.000000  g :     0.000000
      g+1     :     0.000000
      g-1     :     0.000000
      g+2     :     0.000000
      g-2     :     0.000000
      g+3     :     0.000000
      g-3     :     0.000000
      g+4     :     0.000000
      g-4     :     0.000000


                     *******************************
                     * LOEWDIN POPULATION ANALYSIS *
                     *******************************

----------------------
LOEWDIN ATOMIC CHARGES
----------------------
   0 Ne:    8.000000

-------------------------------
LOEWDIN REDUCED ORBITAL CHARGES
-------------------------------
  0 Nes       :     2.000000  s :     2.000000
      pz      :     0.000000  p :     0.000000
      px      :     0.000000
      py      :     0.000000
      dz2     :     0.000000  d :     0.000000
      dxz     :     0.000000
      dyz     :     0.000000
      dx2y2   :     0.000000
      dxy     :     0.000000
      f0      :     0.000000  f :     0.000000
      f+1     :     0.000000
      f-1     :     0.000000
      f+2     :     0.000000
      f-2     :     0.000000
      f+3     :     0.000000
      f-3     :     0.000000
      g0      :     0.000000  g :     0.000000
      g+1     :     0.000000
      g-1     :     0.000000
      g+2     :     0.000000
      g-2     :     0.000000
      g+3     :     0.000000
      g-3     :     0.000000
      g+4     :     0.000000
      g-4     :     0.000000


                      *****************************
                      * MAYER POPULATION ANALYSIS *
                      *****************************

  NA   - Mulliken gross atomic population
  ZA   - Total nuclear charge
  QA   - Mulliken gross atomic charge
  VA   - Mayer's total valence
  BVA  - Mayer's bonded valence
  FA   - Mayer's free valence

  ATOM       NA         ZA         QA         VA         BVA        FA
  0 Ne     2.0000    10.0000     8.0000    -0.0000     0.0000    -0.0000

  Mayer bond orders larger than 0.100000


--------------------------
ATOM BASIS FOR ELEMENT Ne
--------------------------
 NewGTO Ne
 S 15
    1     160676.279550000007         0.000050929033
    2      23953.195038999998         0.000398405772
    3       5437.506371100000         0.002090445087
    4       1544.274102400000         0.008659498441
    5        507.888142690000         0.030084945226
    6        184.948477500000         0.088918378116
    7         72.522952039000         0.213379820194
    8         30.088713575000         0.374659621027
    9        120.684349400000        -0.003375719257
   10         36.074294857000        -0.029860414181
   11         13.052091210000         0.353260563060
   12          5.797478335300         0.111104331813
   13          2.047862689500         0.004884267470
   14          0.802145719900        -0.001518906492
   15          0.305486722000         0.000439324393
 S 15
    1     160676.279550000007         0.000016976836
    2      23953.195038999998         0.000132805771
    3       5437.506371100000         0.000696835215
    4       1544.274102400000         0.002886583098
    5        507.888142690000         0.010028605582
    6        184.948477500000         0.029640317988
    7         72.522952039000         0.071128667175
    8         30.088713575000         0.124890158140
    9        120.684349400000         0.003474198937
   10         36.074294857000         0.030731530469
   11         13.052091210000         0.263023620661
   12          5.797478335300        -0.034294966611
   13          2.047862689500        -0.816880861471
   14          0.802145719900        -0.303245451018
   15          0.305486722000         0.015174781654
 S 15
    1     160676.279550000007        -0.000008749785
    2      23953.195038999998        -0.000068447497
    3       5437.506371100000        -0.000359145732
    4       1544.274102400000        -0.001487731933
    5        507.888142690000        -0.005168698165
    6        184.948477500000        -0.015276486441
    7         72.522952039000        -0.036659394819
    8         30.088713575000        -0.064367825211
    9        120.684349400000        -0.002723072097
   10         36.074294857000        -0.024087329093
   11         13.052091210000        -0.140565069596
   12          5.797478335300        -0.019286908836
   13          2.047862689500         1.061047410940
   14          0.802145719900        -0.278030527154
   15          0.305486722000        -1.061401812890
 S 15
    1     160676.279550000007        -0.000009474328
    2      23953.195038999998        -0.000074115425
    3       5437.506371100000        -0.000388885498
    4       1544.274102400000        -0.001610926487
    5        507.888142690000        -0.005596702334
    6        184.948477500000        -0.016541485802
    7         72.522952039000        -0.039695047763
    8         30.088713575000        -0.069697928969
    9        120.684349400000        -0.005986328852
   10         36.074294857000        -0.052952939907
   11         13.052091210000        -0.070242506994
   12          5.797478335300        -0.324648466541
   13          2.047862689500         2.731267808255
   14          0.802145719900        -4.147676654872
   15          0.305486722000         2.213567557668
 S 15
    1     160676.279550000007        -0.000032202491
    2      23953.195038999998        -0.000251912467
    3       5437.506371100000        -0.001321791035
    4       1544.274102400000        -0.005475411662
    5        507.888142690000        -0.019022748381
    6        184.948477500000        -0.056223201359
    7         72.522952039000        -0.134920326383
    8         30.088713575000        -0.236897745558
    9        120.684349400000         0.019229263720
   10         36.074294857000         0.170095240575
   11         13.052091210000        -1.944951619031
   12          5.797478335300         4.812461486816
   13          2.047862689500        -4.873123561098
   14          0.802145719900         3.047854055835
   15          0.305486722000        -0.942352483773
 S 15
    1     160676.279550000007        -0.000011680261
    2      23953.195038999998        -0.000091371916
    3       5437.506371100000        -0.000479430738
    4       1544.274102400000        -0.001986002769
    5        507.888142690000        -0.006899797364
    6        184.948477500000        -0.020392883760
    7         72.522952039000        -0.048937350884
    8         30.088713575000        -0.085925882399
    9        120.684349400000        -0.210126426112
   10         36.074294857000        -1.858703771549
   11         13.052091210000         5.247419653414
   12          5.797478335300        -4.986656202104
   13          2.047862689500         2.741144920057
   14          0.802145719900        -1.371117081916
   15          0.305486722000         0.394531209113
 S 15
    1     160676.279550000007        -0.000554288031
    2      23953.195038999998        -0.004336064114
    3       5437.506371100000        -0.022751437231
    4       1544.274102400000        -0.094245974927
    5        507.888142690000        -0.327430625774
    6        184.948477500000        -0.967746491478
    7         72.522952039000        -2.322327247993
    8         30.088713575000        -4.077621988068
    9        120.684349400000         0.880520555555
   10         36.074294857000         7.788772254001
   11         13.052091210000        -2.986975326888
   12          5.797478335300         2.380664458292
   13          2.047862689500        -1.214171197684
   14          0.802145719900         0.608124326141
   15          0.305486722000        -0.176873935444
 P 9
    1        498.433974660000         0.000801867347
    2        118.141092170000         0.006733279201
    3         38.032529735000         0.033930742281
    4         14.183731950000         0.121127463139
    5          5.786419072100         0.310734557052
    6          2.459962216000         0.544295369287
    7          1.042199949800         0.119405517334
    8          0.429877489200         0.038722245813
    9          0.168897084500        -0.012236234564
 P 9
    1        498.433974660000         0.000539497304
    2        118.141092170000         0.004530158247
    3         38.032529735000         0.022828643725
    4         14.183731950000         0.081494701131
    5          5.786419072100         0.209062579219
    6          2.459962216000         0.366202571222
    7          1.042199949800        -0.359432437110
    8          0.429877489200        -0.789117059488
    9          0.168897084500        -0.026320182576
 P 9
    1        498.433974660000         0.000381961978
    2        118.141092170000         0.003207334291
    3         38.032529735000         0.016162590320
    4         14.183731950000         0.057697929123
    5          5.786419072100         0.148015487027
    6          2.459962216000         0.259269985727
    7          1.042199949800        -0.530066900032
    8          0.429877489200        -0.659125594337
    9          0.168897084500         1.354684563432
 P 9
    1        498.433974660000         0.000836478979
    2        118.141092170000         0.007023913029
    3         38.032529735000         0.035395321607
    4         14.183731950000         0.126355783134
    5          5.786419072100         0.324147037224
    6          2.459962216000         0.567789218563
    7          1.042199949800        -2.568073303717
    8          0.429877489200         2.851504088483
    9          0.168897084500        -1.320666098540
 D 3
    1          6.471000000000         0.062488642368
    2          2.213000000000         0.330878018489
    3          0.747000000000         0.738888846743
 D 3
    1          6.471000000000         0.070108108752
    2          2.213000000000         1.144489888892
    3          0.747000000000        -1.016181271248
 D 3
    1          6.471000000000         1.340923227477
    2          2.213000000000        -1.172480813249
    3          0.747000000000         0.451424265448
 F 2
    1          4.657000000000        -0.020259112271
    2          1.524000000000         1.010234657423
 F 2
    1          4.657000000000         1.164518304051
    2          1.524000000000        -0.579602664798
 G 1
    1          2.983000000000         1.000000000000
 end
  // -----------------------------------------------
  // The basis set
  // -----------------------------------------------
  BAS[ATNO] = new BFNGauss[NSH];
  // Basis function   1 L = s
  InitBFNGauss(BAS[ATNO][  0]);
  BAS[ATNO][  0].l  = 0;
  BAS[ATNO][  0].ng = 15;
  BAS[ATNO][  0].a[  0] =    160676.279550000007;     BAS[ATNO][  0].d[  0] =         0.000050929033;
  BAS[ATNO][  0].a[  1] =     23953.195038999998;     BAS[ATNO][  0].d[  1] =         0.000398405772;
  BAS[ATNO][  0].a[  2] =      5437.506371100000;     BAS[ATNO][  0].d[  2] =         0.002090445087;
  BAS[ATNO][  0].a[  3] =      1544.274102400000;     BAS[ATNO][  0].d[  3] =         0.008659498441;
  BAS[ATNO][  0].a[  4] =       507.888142690000;     BAS[ATNO][  0].d[  4] =         0.030084945226;
  BAS[ATNO][  0].a[  5] =       184.948477500000;     BAS[ATNO][  0].d[  5] =         0.088918378116;
  BAS[ATNO][  0].a[  6] =        72.522952039000;     BAS[ATNO][  0].d[  6] =         0.213379820194;
  BAS[ATNO][  0].a[  7] =        30.088713575000;     BAS[ATNO][  0].d[  7] =         0.374659621027;
  BAS[ATNO][  0].a[  8] =       120.684349400000;     BAS[ATNO][  0].d[  8] =        -0.003375719257;
  BAS[ATNO][  0].a[  9] =        36.074294857000;     BAS[ATNO][  0].d[  9] =        -0.029860414181;
  BAS[ATNO][  0].a[ 10] =        13.052091210000;     BAS[ATNO][  0].d[ 10] =         0.353260563060;
  BAS[ATNO][  0].a[ 11] =         5.797478335300;     BAS[ATNO][  0].d[ 11] =         0.111104331813;
  BAS[ATNO][  0].a[ 12] =         2.047862689500;     BAS[ATNO][  0].d[ 12] =         0.004884267470;
  BAS[ATNO][  0].a[ 13] =         0.802145719900;     BAS[ATNO][  0].d[ 13] =        -0.001518906492;
  BAS[ATNO][  0].a[ 14] =         0.305486722000;     BAS[ATNO][  0].d[ 14] =         0.000439324393;

  // Basis function   2 L = s
  InitBFNGauss(BAS[ATNO][  1]);
  BAS[ATNO][  1].l  = 0;
  BAS[ATNO][  1].ng = 15;
  BAS[ATNO][  1].a[  0] =    160676.279550000007;     BAS[ATNO][  1].d[  0] =        -0.000016976836;
  BAS[ATNO][  1].a[  1] =     23953.195038999998;     BAS[ATNO][  1].d[  1] =        -0.000132805771;
  BAS[ATNO][  1].a[  2] =      5437.506371100000;     BAS[ATNO][  1].d[  2] =        -0.000696835215;
  BAS[ATNO][  1].a[  3] =      1544.274102400000;     BAS[ATNO][  1].d[  3] =        -0.002886583098;
  BAS[ATNO][  1].a[  4] =       507.888142690000;     BAS[ATNO][  1].d[  4] =        -0.010028605582;
  BAS[ATNO][  1].a[  5] =       184.948477500000;     BAS[ATNO][  1].d[  5] =        -0.029640317988;
  BAS[ATNO][  1].a[  6] =        72.522952039000;     BAS[ATNO][  1].d[  6] =        -0.071128667175;
  BAS[ATNO][  1].a[  7] =        30.088713575000;     BAS[ATNO][  1].d[  7] =        -0.124890158140;
  BAS[ATNO][  1].a[  8] =       120.684349400000;     BAS[ATNO][  1].d[  8] =        -0.003474198937;
  BAS[ATNO][  1].a[  9] =        36.074294857000;     BAS[ATNO][  1].d[  9] =        -0.030731530469;
  BAS[ATNO][  1].a[ 10] =        13.052091210000;     BAS[ATNO][  1].d[ 10] =        -0.263023620661;
  BAS[ATNO][  1].a[ 11] =         5.797478335300;     BAS[ATNO][  1].d[ 11] =         0.034294966611;
  BAS[ATNO][  1].a[ 12] =         2.047862689500;     BAS[ATNO][  1].d[ 12] =         0.816880861471;
  BAS[ATNO][  1].a[ 13] =         0.802145719900;     BAS[ATNO][  1].d[ 13] =         0.303245451018;
  BAS[ATNO][  1].a[ 14] =         0.305486722000;     BAS[ATNO][  1].d[ 14] =        -0.015174781654;

  // Basis function   3 L = s
  InitBFNGauss(BAS[ATNO][  2]);
  BAS[ATNO][  2].l  = 0;
  BAS[ATNO][  2].ng = 15;
  BAS[ATNO][  2].a[  0] =    160676.279550000007;     BAS[ATNO][  2].d[  0] =         0.000008749785;
  BAS[ATNO][  2].a[  1] =     23953.195038999998;     BAS[ATNO][  2].d[  1] =         0.000068447497;
  BAS[ATNO][  2].a[  2] =      5437.506371100000;     BAS[ATNO][  2].d[  2] =         0.000359145732;
  BAS[ATNO][  2].a[  3] =      1544.274102400000;     BAS[ATNO][  2].d[  3] =         0.001487731933;
  BAS[ATNO][  2].a[  4] =       507.888142690000;     BAS[ATNO][  2].d[  4] =         0.005168698165;
  BAS[ATNO][  2].a[  5] =       184.948477500000;     BAS[ATNO][  2].d[  5] =         0.015276486441;
  BAS[ATNO][  2].a[  6] =        72.522952039000;     BAS[ATNO][  2].d[  6] =         0.036659394819;
  BAS[ATNO][  2].a[  7] =        30.088713575000;     BAS[ATNO][  2].d[  7] =         0.064367825211;
  BAS[ATNO][  2].a[  8] =       120.684349400000;     BAS[ATNO][  2].d[  8] =         0.002723072097;
  BAS[ATNO][  2].a[  9] =        36.074294857000;     BAS[ATNO][  2].d[  9] =         0.024087329093;
  BAS[ATNO][  2].a[ 10] =        13.052091210000;     BAS[ATNO][  2].d[ 10] =         0.140565069596;
  BAS[ATNO][  2].a[ 11] =         5.797478335300;     BAS[ATNO][  2].d[ 11] =         0.019286908836;
  BAS[ATNO][  2].a[ 12] =         2.047862689500;     BAS[ATNO][  2].d[ 12] =        -1.061047410940;
  BAS[ATNO][  2].a[ 13] =         0.802145719900;     BAS[ATNO][  2].d[ 13] =         0.278030527154;
  BAS[ATNO][  2].a[ 14] =         0.305486722000;     BAS[ATNO][  2].d[ 14] =         1.061401812890;

  // Basis function   4 L = s
  InitBFNGauss(BAS[ATNO][  3]);
  BAS[ATNO][  3].l  = 0;
  BAS[ATNO][  3].ng = 15;
  BAS[ATNO][  3].a[  0] =    160676.279550000007;     BAS[ATNO][  3].d[  0] =         0.000009474328;
  BAS[ATNO][  3].a[  1] =     23953.195038999998;     BAS[ATNO][  3].d[  1] =         0.000074115425;
  BAS[ATNO][  3].a[  2] =      5437.506371100000;     BAS[ATNO][  3].d[  2] =         0.000388885498;
  BAS[ATNO][  3].a[  3] =      1544.274102400000;     BAS[ATNO][  3].d[  3] =         0.001610926487;
  BAS[ATNO][  3].a[  4] =       507.888142690000;     BAS[ATNO][  3].d[  4] =         0.005596702334;
  BAS[ATNO][  3].a[  5] =       184.948477500000;     BAS[ATNO][  3].d[  5] =         0.016541485802;
  BAS[ATNO][  3].a[  6] =        72.522952039000;     BAS[ATNO][  3].d[  6] =         0.039695047763;
  BAS[ATNO][  3].a[  7] =        30.088713575000;     BAS[ATNO][  3].d[  7] =         0.069697928969;
  BAS[ATNO][  3].a[  8] =       120.684349400000;     BAS[ATNO][  3].d[  8] =         0.005986328852;
  BAS[ATNO][  3].a[  9] =        36.074294857000;     BAS[ATNO][  3].d[  9] =         0.052952939907;
  BAS[ATNO][  3].a[ 10] =        13.052091210000;     BAS[ATNO][  3].d[ 10] =         0.070242506994;
  BAS[ATNO][  3].a[ 11] =         5.797478335300;     BAS[ATNO][  3].d[ 11] =         0.324648466541;
  BAS[ATNO][  3].a[ 12] =         2.047862689500;     BAS[ATNO][  3].d[ 12] =        -2.731267808255;
  BAS[ATNO][  3].a[ 13] =         0.802145719900;     BAS[ATNO][  3].d[ 13] =         4.147676654872;
  BAS[ATNO][  3].a[ 14] =         0.305486722000;     BAS[ATNO][  3].d[ 14] =        -2.213567557668;

  // Basis function   5 L = s
  InitBFNGauss(BAS[ATNO][  4]);
  BAS[ATNO][  4].l  = 0;
  BAS[ATNO][  4].ng = 15;
  BAS[ATNO][  4].a[  0] =    160676.279550000007;     BAS[ATNO][  4].d[  0] =         0.000032202491;
  BAS[ATNO][  4].a[  1] =     23953.195038999998;     BAS[ATNO][  4].d[  1] =         0.000251912467;
  BAS[ATNO][  4].a[  2] =      5437.506371100000;     BAS[ATNO][  4].d[  2] =         0.001321791035;
  BAS[ATNO][  4].a[  3] =      1544.274102400000;     BAS[ATNO][  4].d[  3] =         0.005475411662;
  BAS[ATNO][  4].a[  4] =       507.888142690000;     BAS[ATNO][  4].d[  4] =         0.019022748381;
  BAS[ATNO][  4].a[  5] =       184.948477500000;     BAS[ATNO][  4].d[  5] =         0.056223201359;
  BAS[ATNO][  4].a[  6] =        72.522952039000;     BAS[ATNO][  4].d[  6] =         0.134920326383;
  BAS[ATNO][  4].a[  7] =        30.088713575000;     BAS[ATNO][  4].d[  7] =         0.236897745558;
  BAS[ATNO][  4].a[  8] =       120.684349400000;     BAS[ATNO][  4].d[  8] =        -0.019229263720;
  BAS[ATNO][  4].a[  9] =        36.074294857000;     BAS[ATNO][  4].d[  9] =        -0.170095240575;
  BAS[ATNO][  4].a[ 10] =        13.052091210000;     BAS[ATNO][  4].d[ 10] =         1.944951619031;
  BAS[ATNO][  4].a[ 11] =         5.797478335300;     BAS[ATNO][  4].d[ 11] =        -4.812461486816;
  BAS[ATNO][  4].a[ 12] =         2.047862689500;     BAS[ATNO][  4].d[ 12] =         4.873123561098;
  BAS[ATNO][  4].a[ 13] =         0.802145719900;     BAS[ATNO][  4].d[ 13] =        -3.047854055835;
  BAS[ATNO][  4].a[ 14] =         0.305486722000;     BAS[ATNO][  4].d[ 14] =         0.942352483773;

  // Basis function   6 L = s
  InitBFNGauss(BAS[ATNO][  5]);
  BAS[ATNO][  5].l  = 0;
  BAS[ATNO][  5].ng = 15;
  BAS[ATNO][  5].a[  0] =    160676.279550000007;     BAS[ATNO][  5].d[  0] =        -0.000011680261;
  BAS[ATNO][  5].a[  1] =     23953.195038999998;     BAS[ATNO][  5].d[  1] =        -0.000091371916;
  BAS[ATNO][  5].a[  2] =      5437.506371100000;     BAS[ATNO][  5].d[  2] =        -0.000479430738;
  BAS[ATNO][  5].a[  3] =      1544.274102400000;     BAS[ATNO][  5].d[  3] =        -0.001986002769;
  BAS[ATNO][  5].a[  4] =       507.888142690000;     BAS[ATNO][  5].d[  4] =        -0.006899797364;
  BAS[ATNO][  5].a[  5] =       184.948477500000;     BAS[ATNO][  5].d[  5] =        -0.020392883760;
  BAS[ATNO][  5].a[  6] =        72.522952039000;     BAS[ATNO][  5].d[  6] =        -0.048937350884;
  BAS[ATNO][  5].a[  7] =        30.088713575000;     BAS[ATNO][  5].d[  7] =        -0.085925882399;
  BAS[ATNO][  5].a[  8] =       120.684349400000;     BAS[ATNO][  5].d[  8] =        -0.210126426112;
  BAS[ATNO][  5].a[  9] =        36.074294857000;     BAS[ATNO][  5].d[  9] =        -1.858703771549;
  BAS[ATNO][  5].a[ 10] =        13.052091210000;     BAS[ATNO][  5].d[ 10] =         5.247419653414;
  BAS[ATNO][  5].a[ 11] =         5.797478335300;     BAS[ATNO][  5].d[ 11] =        -4.986656202104;
  BAS[ATNO][  5].a[ 12] =         2.047862689500;     BAS[ATNO][  5].d[ 12] =         2.741144920057;
  BAS[ATNO][  5].a[ 13] =         0.802145719900;     BAS[ATNO][  5].d[ 13] =        -1.371117081916;
  BAS[ATNO][  5].a[ 14] =         0.305486722000;     BAS[ATNO][  5].d[ 14] =         0.394531209113;

  // Basis function   7 L = s
  InitBFNGauss(BAS[ATNO][  6]);
  BAS[ATNO][  6].l  = 0;
  BAS[ATNO][  6].ng = 15;
  BAS[ATNO][  6].a[  0] =    160676.279550000007;     BAS[ATNO][  6].d[  0] =        -0.000554288031;
  BAS[ATNO][  6].a[  1] =     23953.195038999998;     BAS[ATNO][  6].d[  1] =        -0.004336064114;
  BAS[ATNO][  6].a[  2] =      5437.506371100000;     BAS[ATNO][  6].d[  2] =        -0.022751437231;
  BAS[ATNO][  6].a[  3] =      1544.274102400000;     BAS[ATNO][  6].d[  3] =        -0.094245974927;
  BAS[ATNO][  6].a[  4] =       507.888142690000;     BAS[ATNO][  6].d[  4] =        -0.327430625774;
  BAS[ATNO][  6].a[  5] =       184.948477500000;     BAS[ATNO][  6].d[  5] =        -0.967746491478;
  BAS[ATNO][  6].a[  6] =        72.522952039000;     BAS[ATNO][  6].d[  6] =        -2.322327247993;
  BAS[ATNO][  6].a[  7] =        30.088713575000;     BAS[ATNO][  6].d[  7] =        -4.077621988068;
  BAS[ATNO][  6].a[  8] =       120.684349400000;     BAS[ATNO][  6].d[  8] =         0.880520555555;
  BAS[ATNO][  6].a[  9] =        36.074294857000;     BAS[ATNO][  6].d[  9] =         7.788772254001;
  BAS[ATNO][  6].a[ 10] =        13.052091210000;     BAS[ATNO][  6].d[ 10] =        -2.986975326888;
  BAS[ATNO][  6].a[ 11] =         5.797478335300;     BAS[ATNO][  6].d[ 11] =         2.380664458292;
  BAS[ATNO][  6].a[ 12] =         2.047862689500;     BAS[ATNO][  6].d[ 12] =        -1.214171197684;
  BAS[ATNO][  6].a[ 13] =         0.802145719900;     BAS[ATNO][  6].d[ 13] =         0.608124326141;
  BAS[ATNO][  6].a[ 14] =         0.305486722000;     BAS[ATNO][  6].d[ 14] =        -0.176873935444;

  // Basis function   8 L = p
  InitBFNGauss(BAS[ATNO][  7]);
  BAS[ATNO][  7].l  = 1;
  BAS[ATNO][  7].ng = 9;
  BAS[ATNO][  7].a[  0] =       498.433974660000;     BAS[ATNO][  7].d[  0] =         0.000801867347;
  BAS[ATNO][  7].a[  1] =       118.141092170000;     BAS[ATNO][  7].d[  1] =         0.006733279201;
  BAS[ATNO][  7].a[  2] =        38.032529735000;     BAS[ATNO][  7].d[  2] =         0.033930742281;
  BAS[ATNO][  7].a[  3] =        14.183731950000;     BAS[ATNO][  7].d[  3] =         0.121127463139;
  BAS[ATNO][  7].a[  4] =         5.786419072100;     BAS[ATNO][  7].d[  4] =         0.310734557052;
  BAS[ATNO][  7].a[  5] =         2.459962216000;     BAS[ATNO][  7].d[  5] =         0.544295369287;
  BAS[ATNO][  7].a[  6] =         1.042199949800;     BAS[ATNO][  7].d[  6] =         0.119405517334;
  BAS[ATNO][  7].a[  7] =         0.429877489200;     BAS[ATNO][  7].d[  7] =         0.038722245813;
  BAS[ATNO][  7].a[  8] =         0.168897084500;     BAS[ATNO][  7].d[  8] =        -0.012236234564;

  // Basis function   9 L = p
  InitBFNGauss(BAS[ATNO][  8]);
  BAS[ATNO][  8].l  = 1;
  BAS[ATNO][  8].ng = 9;
  BAS[ATNO][  8].a[  0] =       498.433974660000;     BAS[ATNO][  8].d[  0] =        -0.000539497304;
  BAS[ATNO][  8].a[  1] =       118.141092170000;     BAS[ATNO][  8].d[  1] =        -0.004530158247;
  BAS[ATNO][  8].a[  2] =        38.032529735000;     BAS[ATNO][  8].d[  2] =        -0.022828643725;
  BAS[ATNO][  8].a[  3] =        14.183731950000;     BAS[ATNO][  8].d[  3] =        -0.081494701131;
  BAS[ATNO][  8].a[  4] =         5.786419072100;     BAS[ATNO][  8].d[  4] =        -0.209062579219;
  BAS[ATNO][  8].a[  5] =         2.459962216000;     BAS[ATNO][  8].d[  5] =        -0.366202571222;
  BAS[ATNO][  8].a[  6] =         1.042199949800;     BAS[ATNO][  8].d[  6] =         0.359432437110;
  BAS[ATNO][  8].a[  7] =         0.429877489200;     BAS[ATNO][  8].d[  7] =         0.789117059488;
  BAS[ATNO][  8].a[  8] =         0.168897084500;     BAS[ATNO][  8].d[  8] =         0.026320182576;

  // Basis function  10 L = p
  InitBFNGauss(BAS[ATNO][  9]);
  BAS[ATNO][  9].l  = 1;
  BAS[ATNO][  9].ng = 9;
  BAS[ATNO][  9].a[  0] =       498.433974660000;     BAS[ATNO][  9].d[  0] =         0.000381961978;
  BAS[ATNO][  9].a[  1] =       118.141092170000;     BAS[ATNO][  9].d[  1] =         0.003207334291;
  BAS[ATNO][  9].a[  2] =        38.032529735000;     BAS[ATNO][  9].d[  2] =         0.016162590320;
  BAS[ATNO][  9].a[  3] =        14.183731950000;     BAS[ATNO][  9].d[  3] =         0.057697929123;
  BAS[ATNO][  9].a[  4] =         5.786419072100;     BAS[ATNO][  9].d[  4] =         0.148015487027;
  BAS[ATNO][  9].a[  5] =         2.459962216000;     BAS[ATNO][  9].d[  5] =         0.259269985727;
  BAS[ATNO][  9].a[  6] =         1.042199949800;     BAS[ATNO][  9].d[  6] =        -0.530066900032;
  BAS[ATNO][  9].a[  7] =         0.429877489200;     BAS[ATNO][  9].d[  7] =        -0.659125594337;
  BAS[ATNO][  9].a[  8] =         0.168897084500;     BAS[ATNO][  9].d[  8] =         1.354684563432;

  // Basis function  11 L = p
  InitBFNGauss(BAS[ATNO][ 10]);
  BAS[ATNO][ 10].l  = 1;
  BAS[ATNO][ 10].ng = 9;
  BAS[ATNO][ 10].a[  0] =       498.433974660000;     BAS[ATNO][ 10].d[  0] =         0.000836478979;
  BAS[ATNO][ 10].a[  1] =       118.141092170000;     BAS[ATNO][ 10].d[  1] =         0.007023913029;
  BAS[ATNO][ 10].a[  2] =        38.032529735000;     BAS[ATNO][ 10].d[  2] =         0.035395321607;
  BAS[ATNO][ 10].a[  3] =        14.183731950000;     BAS[ATNO][ 10].d[  3] =         0.126355783134;
  BAS[ATNO][ 10].a[  4] =         5.786419072100;     BAS[ATNO][ 10].d[  4] =         0.324147037224;
  BAS[ATNO][ 10].a[  5] =         2.459962216000;     BAS[ATNO][ 10].d[  5] =         0.567789218563;
  BAS[ATNO][ 10].a[  6] =         1.042199949800;     BAS[ATNO][ 10].d[  6] =        -2.568073303717;
  BAS[ATNO][ 10].a[  7] =         0.429877489200;     BAS[ATNO][ 10].d[  7] =         2.851504088483;
  BAS[ATNO][ 10].a[  8] =         0.168897084500;     BAS[ATNO][ 10].d[  8] =        -1.320666098540;

  // Basis function  12 L = d
  InitBFNGauss(BAS[ATNO][ 11]);
  BAS[ATNO][ 11].l  = 2;
  BAS[ATNO][ 11].ng = 3;
  BAS[ATNO][ 11].a[  0] =         6.471000000000;     BAS[ATNO][ 11].d[  0] =         0.062488642368;
  BAS[ATNO][ 11].a[  1] =         2.213000000000;     BAS[ATNO][ 11].d[  1] =         0.330878018489;
  BAS[ATNO][ 11].a[  2] =         0.747000000000;     BAS[ATNO][ 11].d[  2] =         0.738888846743;

  // Basis function  13 L = d
  InitBFNGauss(BAS[ATNO][ 12]);
  BAS[ATNO][ 12].l  = 2;
  BAS[ATNO][ 12].ng = 3;
  BAS[ATNO][ 12].a[  0] =         6.471000000000;     BAS[ATNO][ 12].d[  0] =         0.070108108752;
  BAS[ATNO][ 12].a[  1] =         2.213000000000;     BAS[ATNO][ 12].d[  1] =         1.144489888892;
  BAS[ATNO][ 12].a[  2] =         0.747000000000;     BAS[ATNO][ 12].d[  2] =        -1.016181271248;

  // Basis function  14 L = d
  InitBFNGauss(BAS[ATNO][ 13]);
  BAS[ATNO][ 13].l  = 2;
  BAS[ATNO][ 13].ng = 3;
  BAS[ATNO][ 13].a[  0] =         6.471000000000;     BAS[ATNO][ 13].d[  0] =         1.340923227477;
  BAS[ATNO][ 13].a[  1] =         2.213000000000;     BAS[ATNO][ 13].d[  1] =        -1.172480813249;
  BAS[ATNO][ 13].a[  2] =         0.747000000000;     BAS[ATNO][ 13].d[  2] =         0.451424265448;

  // Basis function  15 L = f
  InitBFNGauss(BAS[ATNO][ 14]);
  BAS[ATNO][ 14].l  = 3;
  BAS[ATNO][ 14].ng = 2;
  BAS[ATNO][ 14].a[  0] =         4.657000000000;     BAS[ATNO][ 14].d[  0] =        -0.020259112271;
  BAS[ATNO][ 14].a[  1] =         1.524000000000;     BAS[ATNO][ 14].d[  1] =         1.010234657423;

  // Basis function  16 L = f
  InitBFNGauss(BAS[ATNO][ 15]);
  BAS[ATNO][ 15].l  = 3;
  BAS[ATNO][ 15].ng = 2;
  BAS[ATNO][ 15].a[  0] =         4.657000000000;     BAS[ATNO][ 15].d[  0] =         1.164518304051;
  BAS[ATNO][ 15].a[  1] =         1.524000000000;     BAS[ATNO][ 15].d[  1] =        -0.579602664798;

  // Basis function  17 L = g
  InitBFNGauss(BAS[ATNO][ 16]);
  BAS[ATNO][ 16].l  = 4;
  BAS[ATNO][ 16].ng = 1;
  BAS[ATNO][ 16].a[  0] =         2.983000000000;     BAS[ATNO][ 16].d[  0] =         1.000000000000;

-------
TIMINGS
-------

Total SCF time: 0 days 0 hours 0 min 1 sec 

Total time                  ....       1.519 sec
Sum of individual times     ....       1.348 sec  ( 88.7%)

Fock matrix formation       ....       0.883 sec  ( 58.1%)
  XC integration            ....       0.019 sec  (  2.1% of F)
    Basis function eval.    ....       0.003 sec  ( 14.9% of XC)
    Density eval.           ....       0.001 sec  (  7.3% of XC)
    XC-Functional eval.     ....       0.001 sec  (  7.3% of XC)
    XC-Potential eval.      ....       0.002 sec  ( 10.1% of XC)
Diagonalization             ....       0.002 sec  (  0.1%)
Density matrix formation    ....       0.001 sec  (  0.0%)
Population analysis         ....       0.001 sec  (  0.1%)
Initial guess               ....       0.087 sec  (  5.7%)
Orbital Transformation      ....       0.000 sec  (  0.0%)
Orbital Orthonormalization  ....       0.000 sec  (  0.0%)
DIIS solution               ....       0.000 sec  (  0.0%)
SOSCF solution              ....       0.001 sec  (  0.0%)
Grid generation             ....       0.374 sec  ( 24.6%)

-------------------------   --------------------
FINAL SINGLE POINT ENERGY       -94.197502074362
-------------------------   --------------------


                            ***************************************
                            *     ORCA property calculations      *
                            ***************************************

                                    ---------------------
                                    Active property flags
                                    ---------------------
   (+) Dipole Moment


------------------------------------------------------------------------------
                       ORCA ELECTRIC PROPERTIES CALCULATION
------------------------------------------------------------------------------

Dipole Moment Calculation                       ... on
Quadrupole Moment Calculation                   ... off
Polarizability Calculation                      ... off
GBWName                                         ... Ne_def2-qzvpp_68.5179945_.gbw
Electron density file                           ... Ne_def2-qzvpp_68.5179945_.scfp
The origin for moment calculation is the CENTER OF MASS  = ( 0.000000,  0.000000  0.000000)

-------------
DIPOLE MOMENT
-------------
                                X             Y             Z
Electronic contribution:     -0.00000       0.00000      -0.00000
Nuclear contribution   :      0.00000       0.00000       0.00000
                        -----------------------------------------
Total Dipole Moment    :     -0.00000       0.00000      -0.00000
                        -----------------------------------------
Magnitude (a.u.)       :      0.00000
Magnitude (Debye)      :      0.00000



--------------------
Rotational spectrum 
--------------------
 
Rotational constants in cm-1:     0.000000     0.000000     0.000000 
Rotational constants in MHz :     0.000000     0.000000     0.000000 

 Dipole components along the rotational axes: 
x,y,z [a.u.] :    -0.000000     0.000000    -0.000000 
x,y,z [Debye]:    -0.000000     0.000000    -0.000000 

 

Timings for individual modules:

Sum of individual times         ...        2.603 sec (=   0.043 min)
GTO integral calculation        ...        0.506 sec (=   0.008 min)  19.4 %
Relativistic integrals          ...        0.336 sec (=   0.006 min)  12.9 %
SCF iterations                  ...        1.761 sec (=   0.029 min)  67.7 %
                             ****ORCA TERMINATED NORMALLY****
TOTAL RUN TIME: 0 days 0 hours 0 minutes 2 seconds 928 msec
