
                                 *****************
                                 * O   R   C   A *
                                 *****************

           --- An Ab Initio, DFT and Semiempirical electronic structure package ---

                  #######################################################
                  #                        -***-                        #
                  #          Department of theory and spectroscopy      #
                  #               Directorship: Frank Neese             #
                  #        Max Planck Institute fuer Kohlenforschung    #
                  #                Kaiser Wilhelm Platz 1               #
                  #                 D-45470 Muelheim/Ruhr               #
                  #                      Germany                        #
                  #                                                     #
                  #                  All rights reserved                #
                  #                        -***-                        #
                  #######################################################


                         Program Version 4.2.1 -  RELEASE  -


 With contributions from (in alphabetic order):
   Daniel Aravena         : Magnetic Suceptibility
   Michael Atanasov       : Ab Initio Ligand Field Theory (pilot matlab implementation)
   Alexander A. Auer      : GIAO ZORA, VPT2
   Ute Becker             : Parallelization
   Giovanni Bistoni       : ED, misc. LED, open-shell LED, HFLD
   Martin Brehm           : Molecular dynamics
   Dmytro Bykov           : SCF Hessian
   Vijay G. Chilkuri      : MRCI spin determinant printing, contributions to CSF-ICE
   Dipayan Datta          : RHF DLPNO-CCSD density
   Achintya Kumar Dutta   : EOM-CC, STEOM-CC
   Dmitry Ganyushin       : Spin-Orbit,Spin-Spin,Magnetic field MRCI
   Miquel Garcia          : C-PCM Hessian, Gaussian charge scheme
   Yang Guo               : DLPNO-NEVPT2, CIM, IAO-localization
   Andreas Hansen         : Spin unrestricted coupled pair/coupled cluster methods
   Benjamin Helmich-Paris : CASSCF linear response (MC-RPA)
   Lee Huntington         : MR-EOM, pCC
   Robert Izsak           : Overlap fitted RIJCOSX, COSX-SCS-MP3, EOM
   Christian Kollmar      : KDIIS, OOCD, Brueckner-CCSD(T), CCSD density
   Simone Kossmann        : Meta GGA functionals, TD-DFT gradient, OOMP2, MP2 Hessian
   Martin Krupicka        : AUTO-CI
   Lucas Lang             : DCDCAS
   Dagmar Lenk            : GEPOL surface, SMD
   Dimitrios Liakos       : Extrapolation schemes; Compound Job, initial MDCI parallelization
   Dimitrios Manganas     : Further ROCIS development; embedding schemes
   Dimitrios Pantazis     : SARC Basis sets
   Taras Petrenko         : DFT Hessian,TD-DFT gradient, ASA, ECA, R-Raman, ABS, FL, XAS/XES, NRVS
   Peter Pinski           : DLPNO-MP2, DLPNO-MP2 Gradient
   Christoph Reimann      : Effective Core Potentials
   Marius Retegan         : Local ZFS, SOC
   Christoph Riplinger    : Optimizer, TS searches, QM/MM, DLPNO-CCSD(T), (RO)-DLPNO pert. Triples
   Tobias Risthaus        : Range-separated hybrids, TD-DFT gradient, RPA, STAB
   Michael Roemelt        : Original ROCIS implementation
   Masaaki Saitow         : Open-shell DLPNO-CCSD energy and density
   Barbara Sandhoefer     : DKH picture change effects
   Avijit Sen             : IP-ROCIS
   Kantharuban Sivalingam : CASSCF convergence, NEVPT2, FIC-MRCI
   Bernardo de Souza      : ESD, SOC TD-DFT
   Georgi Stoychev        : AutoAux, RI-MP2 NMR
   Willem Van den Heuvel  : Paramagnetic NMR
   Boris Wezisla          : Elementary symmetry handling
   Frank Wennmohs         : Technical directorship


 We gratefully acknowledge several colleagues who have allowed us to
 interface, adapt or use parts of their codes:
   Stefan Grimme, W. Hujo, H. Kruse,             : VdW corrections, initial TS optimization,
                  C. Bannwarth                     DFT functionals, gCP, sTDA/sTD-DF
   Ed Valeev, F. Pavosevic, A. Kumar             : LibInt (2-el integral package), F12 methods
   Garnet Chan, S. Sharma, J. Yang, R. Olivares  : DMRG
   Ulf Ekstrom                                   : XCFun DFT Library
   Mihaly Kallay                                 : mrcc  (arbitrary order and MRCC methods)
   Andreas Klamt, Michael Diedenhofen            : otool_cosmo (COSMO solvation model)
   Jiri Pittner, Ondrej Demel                    : Mk-CCSD
   Frank Weinhold                                : gennbo (NPA and NBO analysis)
   Christopher J. Cramer and Donald G. Truhlar   : smd solvation model
   Lars Goerigk                                  : TD-DFT with DH, B97 family of functionals
   V. Asgeirsson, H. Jonsson                     : NEB implementation
   FAccTs GmbH                                   : IRC, NEB, NEB-TS, Multilevel, MM, QM/MM, CI optimization
   S Lehtola, MJT Oliveira, MAL Marques          : LibXC Library


 Your calculation uses the libint2 library for the computation of 2-el integrals
 For citations please refer to: http://libint.valeyev.net

 Your ORCA version has been built with support for libXC version: 4.2.3
 For citations please refer to: https://tddft.org/programs/libxc/

 This ORCA versions uses:
   CBLAS   interface :  Fast vector & matrix operations
   LAPACKE interface :  Fast linear algebra routines
   SCALAPACK package :  Parallel linear algebra routines


----- Orbital basis set information -----
Your calculation utilizes the basis: pc-4
   H, C-F              : F. Jensen, J. Chem. Phys. 115, 9113 (2001).
                         F. Jensen, J. Chem. Phys. 116, 7372 (2002).
                         F. Jensen, J. Chem. Phys. 117, 9234 (2002).
   Si-Cl               : F. Jensen, T. Helgaker, J. Chem. Phys. 121, 3463 (2004).
   He-B, Ne-Mg, Al, Ar : F. Jensen, J. Phys. Chem. A 111, 11198 (2007).
   K, Ca, Ga-Kr        : F. Jensen, J. Chem. Phys. 136, 094110 (2012).
   Sc-Zn               : F. Jensen, J. Chem. Phys. 138, 014107 (2013).

================================================================================
                                        WARNINGS
                       Please study these warnings very carefully!
================================================================================


INFO   : the flag for use of LIBINT has been found!

================================================================================
                                       INPUT FILE
================================================================================
NAME = Ne_pc-4_68.5179945_.inp
|  1> ! LDA pc-4 nori grid5 finalgrid6 verytightscf
|  2> %Pal NProcs 18 End
|  3> 
|  4> % REL
|  5>   Method ZORA
|  6>   ModelPot 1, 0, 0, 0
|  7>   velit 68.5179945
|  8> END
|  9> 
| 10> *xyz 8 1
| 11> Ne 0.0 0.0 0.0
| 12> **                         ****END OF INPUT****
================================================================================

                       ****************************
                       * Single Point Calculation *
                       ****************************

---------------------------------
CARTESIAN COORDINATES (ANGSTROEM)
---------------------------------
  Ne     0.000000    0.000000    0.000000

----------------------------
CARTESIAN COORDINATES (A.U.)
----------------------------
  NO LB      ZA    FRAG     MASS         X           Y           Z
   0 Ne   10.0000    0    20.179    0.000000    0.000000    0.000000

--------------------------------
INTERNAL COORDINATES (ANGSTROEM)
--------------------------------
 Ne     0   0   0     0.000000000000     0.00000000     0.00000000

---------------------------
INTERNAL COORDINATES (A.U.)
---------------------------
 Ne     0   0   0     0.000000000000     0.00000000     0.00000000

---------------------
BASIS SET INFORMATION
---------------------
There are 1 groups of distinct atoms

 Group   1 Type Ne  : 26s11p6d3f2g1h contracted to 8s7p6d3f2g1h pattern {119111111/5111111/111111/111/11/1}

Atom   0Ne   basis set group =>   1


           ************************************************************
           *        Program running with 18 parallel MPI-processes    *
           *              working on a common directory               *
           ************************************************************
------------------------------------------------------------------------------
                           ORCA GTO INTEGRAL CALCULATION
------------------------------------------------------------------------------

                         BASIS SET STATISTICS AND STARTUP INFO

 # of primitive gaussian shells          ...   49
 # of primitive gaussian functions       ...  139
 # of contracted shells                  ...   27
 # of contracted basis functions         ...  109
 Highest angular momentum                ...    5
 Maximum contraction depth               ...   11
 Integral package used                   ... LIBINT
 Integral threshhold            Thresh   ...  1.000e-12
 Primitive cut-off              TCut     ...  1.000e-14


------------------------------ INTEGRAL EVALUATION ----------------------------


 * One electron integrals 
 Pre-screening matrix                    ... done
 Shell pair data                         ... done (   0.000 sec)



           ************************************************************
           *        Program running with 18 parallel MPI-processes    *
           *              working on a common directory               *
           ************************************************************
------------------------------------------------------------------------------
                          ORCA RELATIVISTIC HAMILTONIAN
------------------------------------------------------------------------------

Relativistic Method            ... ZORA(MP)
Treatment of potential         ... Van Wuellen
Nucleus model                  ... Point Nucleus
Speed of light used            ...  68.51799450000000


            *************************************************
            *         ZERO ORDER REGULAR APPROXIMATION      *
            *                     ZORA(MP)                  *
            *            Programmed by FN according to      *
            *                   C. van Wuellen              *
            *       J. Chem. Phys. (1998) vol 109, 392-399  *
            *************************************************

Terms included in model potential: +V(e,N)
Basis function cutoff value   ... 1.000000e-12
Loading the fitted atomic densities  (DKH4)  ... done
Calculating the cutoffs                      ... done
Number of fit functions                      ... 11
Setting up the integration grid ... done


           ************************************************************
           *        Program running with 18 parallel MPI-processes    *
           *              working on a common directory               *
           ************************************************************
-------------------------------------------------------------------------------
                                 ORCA SCF
-------------------------------------------------------------------------------

------------
SCF SETTINGS
------------
Hamiltonian:
 Density Functional     Method          .... DFT(GTOs)
 Exchange Functional    Exchange        .... Slater
   X-Alpha parameter    XAlpha          ....  0.666667
 Correlation Functional Correlation     .... VWN-5
 Gradients option       PostSCFGGA      .... off
   Density functional embedding theory  .... OFF

Relativistic Settings:
 Scalar relativistic method             .... ZORA
 Speed of light used       Velit        ....       68.5179945
Orbital energies will be scaled


General Settings:
 Integral files         IntName         .... Ne_pc-4_68.5179945_
 Hartree-Fock type      HFTyp           .... RHF
 Total Charge           Charge          ....    8
 Multiplicity           Mult            ....    1
 Number of Electrons    NEL             ....    2
 Basis Dimension        Dim             ....  109
 Nuclear Repulsion      ENuc            ....      0.0000000000 Eh

Convergence Acceleration:
 DIIS                   CNVDIIS         .... on
   Start iteration      DIISMaxIt       ....    12
   Startup error        DIISStart       ....  0.200000
   # of expansion vecs  DIISMaxEq       ....     5
   Bias factor          DIISBfac        ....   1.050
   Max. coefficient     DIISMaxC        ....  10.000
 Newton-Raphson         CNVNR           .... off
 SOSCF                  CNVSOSCF        .... on
   Start iteration      SOSCFMaxIt      ....   150
   Startup grad/error   SOSCFStart      ....  0.003300
 Level Shifting         CNVShift        .... on
   Level shift para.    LevelShift      ....    0.2500
   Turn off err/grad.   ShiftErr        ....    0.0010
 Zerner damping         CNVZerner       .... off
 Static damping         CNVDamp         .... on
   Fraction old density DampFac         ....    0.7000
   Max. Damping (<1)    DampMax         ....    0.9800
   Min. Damping (>=0)   DampMin         ....    0.0000
   Turn off err/grad.   DampErr         ....    0.1000
 Fernandez-Rico         CNVRico         .... off

SCF Procedure:
 Maximum # iterations   MaxIter         ....   125
 SCF integral mode      SCFMode         .... Direct
   Integral package                     .... LIBINT
 Reset frequency        DirectResetFreq ....    20
 Integral Threshold     Thresh          ....  1.000e-12 Eh
 Primitive CutOff       TCut            ....  1.000e-14 Eh

Convergence Tolerance:
 Convergence Check Mode ConvCheckMode   .... Total+1el-Energy
 Convergence forced     ConvForced      .... 0
 Energy Change          TolE            ....  1.000e-09 Eh
 1-El. energy change                    ....  1.000e-06 Eh
 Orbital Gradient       TolG            ....  2.000e-06
 Orbital Rotation angle TolX            ....  2.000e-06
 DIIS Error             TolErr          ....  1.000e-08


Diagonalization of the overlap matrix:
Smallest eigenvalue                        ... 1.345e-03
Time for diagonalization                   ...    0.003 sec
Threshold for overlap eigenvalues          ... 1.000e-08
Number of eigenvalues below threshold      ... 0
Time for construction of square roots      ...    0.002 sec
Total time needed                          ...    0.004 sec

-------------------
DFT GRID GENERATION
-------------------

General Integration Accuracy     IntAcc      ...  5.010
Radial Grid Type                 RadialGrid  ... Gauss-Chebyshev
Angular Grid (max. acc.)         AngularGrid ... Lebedev-434
Angular grid pruning method      GridPruning ... 3 (G Style)
Weight generation scheme         WeightScheme... Becke
Basis function cutoff            BFCut       ...    1.0000e-12
Integration weight cutoff        WCut        ...    1.0000e-14
Grids for H and He will be reduced by one unit

# of grid points (after initial pruning)     ...  10818 (   0.0 sec)
# of grid points (after weights+screening)   ...  10818 (   0.0 sec)
Grid point division into batches done        ...    0.1 sec
Reduced shell lists constructed in    0.1 sec

Total number of grid points                  ...    10818
Total number of batches                      ...      170
Average number of points per batch           ...       63
Average number of grid points per atom       ...    10818
Average number of shells per batch           ...     1.27 ( 4.71%)
Average number of basis functions per batch  ...     3.09 ( 2.84%)
Average number of large shells per batch     ...     0.91 (71.43%)
Average number of large basis fcns per batch ...     2.73 (88.24%)
Maximum spatial batch extension              ...  16.29, 16.29, 16.29 au
Average spatial batch extension              ...   0.85,  0.86,  0.85 au

Time for grid setup =    0.130 sec

------------------------------
INITIAL GUESS: MODEL POTENTIAL
------------------------------
Loading ZORA relativistic densities                ... done
Calculating cut-offs                               ... done
Setting up the integral package                    ... done
Initializing the effective Hamiltonian             ... done
Starting the Coulomb interaction                   ... done (   0.0 sec)
Reading the grid                                   ... done
Mapping shells                                     ... done
Starting the XC term evaluation                    ... done (   0.0 sec)
  promolecular density results
     # of electrons  =     10.000000334
     EX              =    -11.053709298
     EC              =     -0.746638772
     EX+EC           =    -11.800348070
Transforming the Hamiltonian                       ... done (   0.0 sec)
Diagonalizing the Hamiltonian                      ... done (   0.0 sec)
Back transforming the eigenvectors                 ... done (   0.0 sec)
Now organizing SCF variables                       ... done
                      ------------------
                      INITIAL GUESS DONE (   0.2 sec)
                      ------------------
--------------
SCF ITERATIONS
--------------
ITER       Energy         Delta-E        Max-DP      RMS-DP      [F,P]     Damp
               ***  Starting incremental Fock matrix formation  ***
  0    -94.1862912295   0.000000000000 0.00421580  0.00006436  0.8247202 0.7000
  1    -94.1896146055  -0.003323375982 0.00290892  0.00004515  0.5648402 0.7000
  2    -94.1918927338  -0.002278128279 0.00199150  0.00003141  0.3857473 0.7000
                      *** Initiating the SOSCF procedure ***
                      *** Re-Reading the Fockian *** 
                      *** Removing any level shift *** 
ITER      Energy       Delta-E        Grad      Rot      Max-DP    RMS-DP
  3    -94.19346488  -0.0015721481  0.002595  0.002595  0.004544  0.000073
               *** Restarting incremental Fock matrix formation ***
  4    -94.19706511  -0.0036002329  0.005906  0.000102  0.000243  0.000004
  5    -94.19706764  -0.0000025295  0.000318  0.000006  0.000011  0.000000
                  ***Gradient check signals convergence***
              ***Rediagonalizing the Fockian in SOSCF/NRSCF***

               *****************************************************
               *                     SUCCESS                       *
               *           SCF CONVERGED AFTER   6 CYCLES          *
               *****************************************************

Setting up the final grid:

General Integration Accuracy     IntAcc      ...  5.340
Radial Grid Type                 RadialGrid  ... Gauss-Chebyshev
Angular Grid (max. acc.)         AngularGrid ... Lebedev-590
Angular grid pruning method      GridPruning ... 3 (G Style)
Weight generation scheme         WeightScheme... Becke
Basis function cutoff            BFCut       ...    1.0000e-12
Integration weight cutoff        WCut        ...    1.0000e-14
Grids for H and He will be reduced by one unit

# of grid points (after initial pruning)     ...  16840 (   0.0 sec)
# of grid points (after weights+screening)   ...  16840 (   0.0 sec)
Grid point division into batches done        ...    0.2 sec
Reduced shell lists constructed in    0.2 sec

Total number of grid points                  ...    16840
Total number of batches                      ...      264
Average number of points per batch           ...       63
Average number of grid points per atom       ...    16840
Average number of shells per batch           ...     0.56 ( 2.08%)
Average number of basis functions per batch  ...     1.69 ( 1.55%)
Average number of large shells per batch     ...     0.56 (100.00%)
Average number of large basis fcns per batch ...     1.69 (100.00%)
Maximum spatial batch extension              ...  16.63, 16.63, 16.63 au
Average spatial batch extension              ...   0.74,  0.74,  0.69 au

Final grid set up in    0.2 sec
Final integration                            ... done (   0.0 sec)
Change in XC energy                          ...     0.000000280
Integrated number of electrons               ...     2.000000007
Previous integrated no of electrons          ...     1.999999967

----------------
TOTAL SCF ENERGY
----------------

Total Energy       :          -94.19706737 Eh           -2563.23252 eV

Components:
Nuclear Repulsion  :            0.00000000 Eh               0.00000 eV
Electronic Energy  :          -94.19706737 Eh           -2563.23252 eV
One Electron Energy:         -100.92485320 Eh           -2746.30487 eV
Two Electron Energy:            6.72778582 Eh             183.07236 eV

Virial components:
Potential Energy   :         -189.22167082 Eh           -5148.98343 eV
Kinetic Energy     :           95.02460345 Eh            2585.75092 eV
Virial Ratio       :            1.99129135


DFT components:
N(Alpha)           :        1.000000003550 electrons
N(Beta)            :        1.000000003550 electrons
N(Total)           :        2.000000007100 electrons
E(X)               :       -5.216113514004 Eh       
E(C)               :       -0.203359713251 Eh       
E(XC)              :       -5.419473227255 Eh       
DFET-embed. en.    :        0.000000000000 Eh       

---------------
SCF CONVERGENCE
---------------

  Last Energy change         ...   -7.8422e-09  Tolerance :   1.0000e-09
  Last MAX-Density change    ...    4.3333e-09  Tolerance :   1.0000e-08
  Last RMS-Density change    ...    7.7540e-11  Tolerance :   1.0000e-09
  Last Orbital Gradient      ...    3.3282e-08  Tolerance :   2.0000e-06
  Last Orbital Rotation      ...    3.8659e-10  Tolerance :   2.0000e-06

             **** THE GBW FILE WAS UPDATED (Ne_pc-4_68.5179945_.gbw) ****
             **** DENSITY FILE WAS UPDATED (Ne_pc-4_68.5179945_.scfp) ****
             **** ENERGY FILE WAS UPDATED (Ne_pc-4_68.5179945_.en.tmp) ****
             **** THE GBW FILE WAS UPDATED (Ne_pc-4_68.5179945_.gbw) ****
             **** DENSITY FILE WAS UPDATED (Ne_pc-4_68.5179945_.scfp) ****
----------------
ORBITAL ENERGIES
----------------

  NO   OCC          E(Eh)            E(eV) 
   0   2.0000     -41.903470     -1140.2514 
   1   0.0000      -9.117137      -248.0899 
   2   0.0000      -8.643040      -235.1891 
   3   0.0000      -8.643040      -235.1891 
   4   0.0000      -8.643040      -235.1891 
   5   0.0000      -3.856562      -104.9424 
   6   0.0000      -3.714638      -101.0804 
   7   0.0000      -3.714638      -101.0804 
   8   0.0000      -3.714638      -101.0804 
   9   0.0000      -3.605484       -98.1102 
  10   0.0000      -3.605484       -98.1102 
  11   0.0000      -3.605484       -98.1102 
  12   0.0000      -3.605484       -98.1102 
  13   0.0000      -3.605484       -98.1102 
  14   0.0000      -2.092343       -56.9356 
  15   0.0000      -2.061900       -56.1071 
  16   0.0000      -2.061900       -56.1071 
  17   0.0000      -2.061900       -56.1071 
  18   0.0000      -1.987273       -54.0765 
  19   0.0000      -1.987273       -54.0765 
  20   0.0000      -1.987273       -54.0765 
  21   0.0000      -1.987273       -54.0765 
  22   0.0000      -1.987273       -54.0765 
  23   0.0000      -1.764031       -48.0017 
  24   0.0000      -1.764031       -48.0017 
  25   0.0000      -1.764031       -48.0017 
  26   0.0000      -1.764031       -48.0017 
  27   0.0000      -1.764031       -48.0017 
  28   0.0000      -1.764031       -48.0017 
  29   0.0000      -1.764031       -48.0017 
  30   0.0000      -1.269301       -34.5394 
  31   0.0000      -1.269301       -34.5394 
  32   0.0000      -1.269301       -34.5394 
  33   0.0000       0.260202         7.0804 
  34   0.0000       0.260202         7.0804 
  35   0.0000       0.260202         7.0804 
  36   0.0000       0.260202         7.0804 
  37   0.0000       0.260202         7.0804 
  38   0.0000       0.485670        13.2157 
  39   0.0000       1.054865        28.7043 
  40   0.0000       1.054865        28.7043 
  41   0.0000       1.054865        28.7043 
  42   0.0000       1.335465        36.3399 
  43   0.0000       1.335465        36.3399 
  44   0.0000       1.335465        36.3399 
  45   0.0000       1.335465        36.3399 
  46   0.0000       1.335465        36.3399 
  47   0.0000       1.335465        36.3399 
  48   0.0000       1.335465        36.3399 
  49   0.0000       2.742854        74.6368 
  50   0.0000       2.742854        74.6368 
  51   0.0000       2.742854        74.6368 
  52   0.0000       2.742854        74.6368 
  53   0.0000       2.742854        74.6368 
  54   0.0000       2.742854        74.6368 
  55   0.0000       2.742854        74.6368 
  56   0.0000       2.742854        74.6368 
  57   0.0000       2.742854        74.6368 
  58   0.0000       7.432748       202.2554 
  59   0.0000       7.432748       202.2554 
  60   0.0000       7.432748       202.2554 
  61   0.0000       7.432748       202.2554 
  62   0.0000       7.432748       202.2554 
  63   0.0000       7.517859       204.5714 
  64   0.0000       7.517859       204.5714 
  65   0.0000       7.517859       204.5714 
  66   0.0000       7.517859       204.5714 
  67   0.0000       7.517859       204.5714 
  68   0.0000       7.517859       204.5714 
  69   0.0000       7.517859       204.5714 
  70   0.0000       7.517859       204.5714 
  71   0.0000       7.517859       204.5714 
  72   0.0000       7.517859       204.5714 
  73   0.0000       7.517859       204.5714 
  74   0.0000       9.825615       267.3686 
  75   0.0000       9.825615       267.3686 
  76   0.0000       9.825615       267.3686 
  77   0.0000       9.825615       267.3686 
  78   0.0000       9.825615       267.3686 
  79   0.0000       9.825615       267.3686 
  80   0.0000       9.825615       267.3686 
  81   0.0000       9.887660       269.0569 
  82   0.0000       9.887660       269.0569 
  83   0.0000       9.887660       269.0569 
  84   0.0000      10.587086       288.0893 
  85   0.0000      15.988100       435.0583 
  86   0.0000      15.988100       435.0583 
  87   0.0000      15.988100       435.0583 
  88   0.0000      15.988100       435.0583 
  89   0.0000      15.988100       435.0583 
  90   0.0000      15.988100       435.0583 
  91   0.0000      15.988100       435.0583 
  92   0.0000      15.988100       435.0583 
  93   0.0000      15.988100       435.0583 
  94   0.0000      28.444414       774.0118 
  95   0.0000      28.444414       774.0118 
  96   0.0000      28.444414       774.0118 
  97   0.0000      28.444414       774.0118 
  98   0.0000      28.444414       774.0118 
  99   0.0000      42.227944      1149.0808 
 100   0.0000      42.227944      1149.0808 
 101   0.0000      42.227944      1149.0808 
 102   0.0000      43.945155      1195.8085 
 103   0.0000     102.952771      2801.4873 
 104   0.0000     102.952771      2801.4873 
 105   0.0000     102.952771      2801.4873 
 106   0.0000     102.952771      2801.4873 
 107   0.0000     102.952771      2801.4873 
 108   0.0000     238.743583      6496.5432 

                    ********************************
                    * MULLIKEN POPULATION ANALYSIS *
                    ********************************

-----------------------
MULLIKEN ATOMIC CHARGES
-----------------------
   0 Ne:    8.000000
Sum of atomic charges:    8.0000000

--------------------------------
MULLIKEN REDUCED ORBITAL CHARGES
--------------------------------
  0 Nes       :     2.000000  s :     2.000000
      pz      :     0.000000  p :     0.000000
      px      :     0.000000
      py      :     0.000000
      dz2     :     0.000000  d :     0.000000
      dxz     :     0.000000
      dyz     :     0.000000
      dx2y2   :     0.000000
      dxy     :     0.000000
      f0      :     0.000000  f :     0.000000
      f+1     :     0.000000
      f-1     :     0.000000
      f+2     :     0.000000
      f-2     :     0.000000
      f+3     :     0.000000
      f-3     :     0.000000
      g0      :     0.000000  g :     0.000000
      g+1     :     0.000000
      g-1     :     0.000000
      g+2     :     0.000000
      g-2     :     0.000000
      g+3     :     0.000000
      g-3     :     0.000000
      g+4     :     0.000000
      g-4     :     0.000000
      h0      :     0.000000  h :     0.000000
      h+1     :     0.000000
      h-1     :     0.000000
      h+2     :     0.000000
      h-2     :     0.000000
      h+3     :     0.000000
      h-3     :     0.000000
      h+4     :     0.000000
      h-4     :     0.000000
      h+5     :     0.000000
      h-5     :     0.000000


                     *******************************
                     * LOEWDIN POPULATION ANALYSIS *
                     *******************************

----------------------
LOEWDIN ATOMIC CHARGES
----------------------
   0 Ne:    8.000000

-------------------------------
LOEWDIN REDUCED ORBITAL CHARGES
-------------------------------
  0 Nes       :     2.000000  s :     2.000000
      pz      :     0.000000  p :     0.000000
      px      :     0.000000
      py      :     0.000000
      dz2     :     0.000000  d :     0.000000
      dxz     :     0.000000
      dyz     :     0.000000
      dx2y2   :     0.000000
      dxy     :     0.000000
      f0      :     0.000000  f :     0.000000
      f+1     :     0.000000
      f-1     :     0.000000
      f+2     :     0.000000
      f-2     :     0.000000
      f+3     :     0.000000
      f-3     :     0.000000
      g0      :     0.000000  g :     0.000000
      g+1     :     0.000000
      g-1     :     0.000000
      g+2     :     0.000000
      g-2     :     0.000000
      g+3     :     0.000000
      g-3     :     0.000000
      g+4     :     0.000000
      g-4     :     0.000000
      h0      :     0.000000  h :     0.000000
      h+1     :     0.000000
      h-1     :     0.000000
      h+2     :     0.000000
      h-2     :     0.000000
      h+3     :     0.000000
      h-3     :     0.000000
      h+4     :     0.000000
      h-4     :     0.000000
      h+5     :     0.000000
      h-5     :     0.000000


                      *****************************
                      * MAYER POPULATION ANALYSIS *
                      *****************************

  NA   - Mulliken gross atomic population
  ZA   - Total nuclear charge
  QA   - Mulliken gross atomic charge
  VA   - Mayer's total valence
  BVA  - Mayer's bonded valence
  FA   - Mayer's free valence

  ATOM       NA         ZA         QA         VA         BVA        FA
  0 Ne     2.0000    10.0000     8.0000     0.0000     0.0000     0.0000

  Mayer bond orders larger than 0.100000


--------------------------
ATOM BASIS FOR ELEMENT Ne
--------------------------
 NewGTO Ne
 S 26
    1    2522600.000000000000         0.000001622279
    2     377060.000000000000         0.000012661532
    3      85713.000000000000         0.000066541506
    4      24261.000000000000         0.000282030506
    5       7911.700000000000         0.001022894975
    6       2855.500000000000         0.003336069994
    7       1113.600000000000         0.009761438579
    8        461.890000000000         0.026114170940
    9        201.350000000000         0.060164814935
   10         91.198000000000         0.115489439504
   11         42.680000000000         0.123049194638
   12      24261.000000000000        -0.000000347120
   13       7911.700000000000         0.000003624256
   14       2855.500000000000         0.000012954630
   15       1113.600000000000         0.000188848728
   16        461.890000000000         0.000995628262
   17        201.350000000000         0.006620040498
   18         91.198000000000         0.029187420831
   19         42.680000000000         0.128082315292
   20         20.742000000000         0.314167070413
   21         10.249000000000         0.275853019814
   22          5.101300000000         0.046870254745
   23          2.303100000000         0.018612017415
   24          1.053100000000        -0.010356024817
   25          0.472220000000         0.004801840391
   26          0.204660000000        -0.001284135406
 S 26
    1    2522600.000000000000         0.000000529340
    2     377060.000000000000         0.000004131380
    3      85713.000000000000         0.000021712087
    4      24261.000000000000         0.000092024831
    5       7911.700000000000         0.000333764382
    6       2855.500000000000         0.001088539260
    7       1113.600000000000         0.003185097778
    8        461.890000000000         0.008520894454
    9        201.350000000000         0.019631411583
   10         91.198000000000         0.037683498617
   11         42.680000000000         0.040150200537
   12      24261.000000000000        -0.000000180226
   13       7911.700000000000         0.000001881729
   14       2855.500000000000         0.000006726100
   15       1113.600000000000         0.000098051073
   16        461.890000000000         0.000516934482
   17        201.350000000000         0.003437153541
   18         91.198000000000         0.015154234613
   19         42.680000000000         0.066500889780
   20         20.742000000000         0.163116896149
   21         10.249000000000         0.211063733640
   22          5.101300000000        -0.066768942748
   23          2.303100000000        -0.634851612460
   24          1.053100000000        -0.465220821736
   25          0.472220000000        -0.003164170519
   26          0.204660000000        -0.004206640161
 S 26
    1    2522600.000000000000        -0.000000274865
    2     377060.000000000000        -0.000002145259
    3      85713.000000000000        -0.000011274208
    4      24261.000000000000        -0.000047784770
    5       7911.700000000000        -0.000173310333
    6       2855.500000000000        -0.000565234373
    7       1113.600000000000        -0.001653892342
    8        461.890000000000        -0.004424555559
    9        201.350000000000        -0.010193797345
   10         91.198000000000        -0.019567515384
   11         42.680000000000        -0.020848373837
   12      24261.000000000000         0.000000101207
   13       7911.700000000000        -0.000001056700
   14       2855.500000000000        -0.000003777096
   15       1113.600000000000        -0.000055061373
   16        461.890000000000        -0.000290288740
   17        201.350000000000        -0.001930161376
   18         91.198000000000        -0.008509983041
   19         42.680000000000        -0.037344112632
   20         20.742000000000        -0.091599612608
   21         10.249000000000        -0.129120675251
   22          5.101300000000         0.046640751175
   23          2.303100000000         0.686601473312
   24          1.053100000000         0.601792549965
   25          0.472220000000        -1.330136078736
   26          0.204660000000        -0.258025554894
 S 26
    1    2522600.000000000000         0.000000198225
    2     377060.000000000000         0.000001547106
    3      85713.000000000000         0.000008130670
    4      24261.000000000000         0.000034461153
    5       7911.700000000000         0.000124986977
    6       2855.500000000000         0.000407632567
    7       1113.600000000000         0.001192744839
    8        461.890000000000         0.003190876259
    9        201.350000000000         0.007351505817
   10         91.198000000000         0.014111591422
   11         42.680000000000         0.015035313765
   12      24261.000000000000        -0.000000069102
   13       7911.700000000000         0.000000721485
   14       2855.500000000000         0.000002578895
   15       1113.600000000000         0.000037594368
   16        461.890000000000         0.000198201044
   17        201.350000000000         0.001317860276
   18         91.198000000000         0.005810378726
   19         42.680000000000         0.025497517038
   20         20.742000000000         0.062541656999
   21         10.249000000000         0.126725662277
   22          5.101300000000        -0.126297957159
   23          2.303100000000        -0.401619462943
   24          1.053100000000        -1.121999720862
   25          0.472220000000         3.687543801430
   26          0.204660000000        -2.675225575359
 S 26
    1    2522600.000000000000        -0.000000301240
    2     377060.000000000000        -0.000002351111
    3      85713.000000000000        -0.000012356047
    4      24261.000000000000        -0.000052370052
    5       7911.700000000000        -0.000189940667
    6       2855.500000000000        -0.000619472551
    7       1113.600000000000        -0.001812594842
    8        461.890000000000        -0.004849122509
    9        201.350000000000        -0.011171963263
   10         91.198000000000        -0.021445154892
   11         42.680000000000        -0.022848920644
   12      24261.000000000000         0.000000206893
   13       7911.700000000000        -0.000002160163
   14       2855.500000000000        -0.000007721341
   15       1113.600000000000        -0.000112559398
   16        461.890000000000        -0.000593423735
   17        201.350000000000        -0.003945738898
   18         91.198000000000        -0.017396561508
   19         42.680000000000        -0.076340828092
   20         20.742000000000        -0.187252816751
   21         10.249000000000         0.275780725176
   22          5.101300000000        -1.422398967176
   23          2.303100000000         5.902992562346
   24          1.053100000000        -9.080306380800
   25          0.472220000000         6.750063038383
   26          0.204660000000        -2.241109323222
 S 26
    1    2522600.000000000000        -0.000000999443
    2     377060.000000000000        -0.000007800438
    3      85713.000000000000        -0.000040994477
    4      24261.000000000000        -0.000173751599
    5       7911.700000000000        -0.000630178770
    6       2855.500000000000        -0.002055265238
    7       1113.600000000000        -0.006013766326
    8        461.890000000000        -0.016088255901
    9        201.350000000000        -0.037065964727
   10         91.198000000000        -0.071150015096
   11         42.680000000000        -0.075807381988
   12      24261.000000000000         0.000000039889
   13       7911.700000000000        -0.000000416481
   14       2855.500000000000        -0.000001488681
   15       1113.600000000000        -0.000021701550
   16        461.890000000000        -0.000114412615
   17        201.350000000000        -0.000760741906
   18         91.198000000000        -0.003354072256
   19         42.680000000000        -0.014718578344
   20         20.742000000000        -0.036102506645
   21         10.249000000000        -2.942347042775
   22          5.101300000000         8.741274201788
   23          2.303100000000       -10.817213164235
   24          1.053100000000         8.087521376951
   25          0.472220000000        -3.877482483751
   26          0.204660000000         1.017337252148
 S 26
    1    2522600.000000000000        -0.000000024037
    2     377060.000000000000        -0.000000187602
    3      85713.000000000000        -0.000000985925
    4      24261.000000000000        -0.000004178758
    5       7911.700000000000        -0.000015155917
    6       2855.500000000000        -0.000049429514
    7       1113.600000000000        -0.000144632206
    8        461.890000000000        -0.000386925566
    9        201.350000000000        -0.000891443391
   10         91.198000000000        -0.001711171183
   11         42.680000000000        -0.001823181728
   12      24261.000000000000         0.000002066270
   13       7911.700000000000        -0.000021573809
   14       2855.500000000000        -0.000077113961
   15       1113.600000000000        -0.001124144318
   16        461.890000000000        -0.005926594599
   17        201.350000000000        -0.039406571467
   18         91.198000000000        -0.173741563255
   19         42.680000000000        -0.762425080752
   20         20.742000000000        -1.870116522195
   21         10.249000000000         8.578169849096
   22          5.101300000000       -10.635670446410
   23          2.303100000000         7.748638178576
   24          1.053100000000        -4.520782144772
   25          0.472220000000         1.972049181580
   26          0.204660000000        -0.504843674250
 S 26
    1    2522600.000000000000         0.000015361615
    2     377060.000000000000         0.000119894067
    3      85713.000000000000         0.000630092159
    4      24261.000000000000         0.002670591936
    5       7911.700000000000         0.009685955984
    6       2855.500000000000         0.031589779891
    7       1113.600000000000         0.092432621830
    8        461.890000000000         0.247279257802
    9        201.350000000000         0.569710247248
   10         91.198000000000         1.093587958424
   11         42.680000000000         1.165172487873
   12      24261.000000000000         0.000004445904
   13       7911.700000000000        -0.000046419440
   14       2855.500000000000        -0.000165922805
   15       1113.600000000000        -0.002418773142
   16        461.890000000000        -0.012751999550
   17        201.350000000000        -0.084789430630
   18         91.198000000000        -0.373832274082
   19         42.680000000000        -1.640477364281
   20         20.742000000000        -4.023849556736
   21         10.249000000000         7.530354102104
   22          5.101300000000        -6.800986872867
   23          2.303100000000         4.360488065003
   24          1.053100000000        -2.486490805453
   25          0.472220000000         1.092732625597
   26          0.204660000000        -0.282759513166
 P 11
    1       1169.900000000000         0.000188840490
    2        277.110000000000         0.001654462210
    3         89.264000000000         0.009285964076
    4         33.100000000000         0.039174120852
    5         14.031000000000         0.110788097092
    6          6.298500000000         0.286107407673
    7          2.923400000000         0.421670166062
    8          1.353700000000         0.281819274499
    9          0.613620000000         0.019010019869
   10          0.263620000000         0.002722109761
   11          0.107550000000        -0.000925070556
 P 11
    1       1169.900000000000         0.000112339088
    2        277.110000000000         0.000984221002
    3         89.264000000000         0.005524115819
    4         33.100000000000         0.023304244873
    5         14.031000000000         0.065906595666
    6          6.298500000000         0.191399975983
    7          2.923400000000         0.297520004824
    8          1.353700000000         0.018857712982
    9          0.613620000000        -0.828564349791
   10          0.263620000000        -0.283233796885
   11          0.107550000000         0.016821621752
 P 11
    1       1169.900000000000         0.000075096652
    2        277.110000000000         0.000657933967
    3         89.264000000000         0.003692771672
    4         33.100000000000         0.015578466876
    5         14.031000000000         0.044057369080
    6          6.298500000000         0.140222785506
    7          2.923400000000         0.195724593540
    8          1.353700000000        -0.011561700371
    9          0.613620000000        -1.210909415128
   10          0.263620000000         0.933503087566
   11          0.107550000000         0.554947999717
 P 11
    1       1169.900000000000         0.000066333821
    2        277.110000000000         0.000581161379
    3         89.264000000000         0.003261871837
    4         33.100000000000         0.013760656458
    5         14.031000000000         0.038916430301
    6          6.298500000000         0.138597524548
    7          2.923400000000         0.147943334791
    8          1.353700000000         0.043564052651
    9          0.613620000000        -1.704195824597
   10          0.263620000000         2.909233604015
   11          0.107550000000        -1.881317930811
 P 11
    1       1169.900000000000        -0.000209958272
    2        277.110000000000        -0.001839478530
    3         89.264000000000        -0.010324401153
    4         33.100000000000        -0.043554910956
    5         14.031000000000        -0.123177383405
    6          6.298500000000        -0.048420908532
    7          2.923400000000        -1.678834652197
    8          1.353700000000         4.420506898572
    9          0.613620000000        -4.649123245180
   10          0.263620000000         2.735785780736
   11          0.107550000000        -0.881030117364
 P 11
    1       1169.900000000000         0.000193994715
    2        277.110000000000         0.001699619215
    3         89.264000000000         0.009539415816
    4         33.100000000000         0.040243341990
    5         14.031000000000         0.113811955001
    6          6.298500000000         2.296088576147
    7          2.923400000000        -4.955132250326
    8          1.353700000000         4.739742315913
    9          0.613620000000        -2.880035325790
   10          0.263620000000         1.263877981395
   11          0.107550000000        -0.357627216651
 P 11
    1       1169.900000000000         0.002408301007
    2        277.110000000000         0.021099516385
    3         89.264000000000         0.118424796914
    4         33.100000000000         0.499591347556
    5         14.031000000000         1.412891304642
    6          6.298500000000        -3.651459080802
    7          2.923400000000         3.775290004921
    8          1.353700000000        -2.601690702591
    9          0.613620000000         1.395157505324
   10          0.263620000000        -0.593027904218
   11          0.107550000000         0.167437841165
 D 6
    1         32.000000000000         0.002721224650
    2         10.100000000000         0.022545810536
    3          4.000000000000         0.099904259459
    4          1.850000000000         0.294450109507
    5          0.800000000000         0.593856267686
    6          0.300000000000         0.168124818527
 D 6
    1         32.000000000000         0.002514276888
    2         10.100000000000         0.018702186061
    3          4.000000000000         0.095743845565
    4          1.850000000000         0.268278465101
    5          0.800000000000         0.490921982015
    6          0.300000000000        -1.166124879526
 D 6
    1         32.000000000000        -0.002157201514
    2         10.100000000000         0.096435202019
    3          4.000000000000        -0.046899966016
    4          1.850000000000         1.538089836541
    5          0.800000000000        -2.017963639105
    6          0.300000000000         0.933590262266
 D 6
    1         32.000000000000         0.042118277041
    2         10.100000000000        -0.098457641570
    3          4.000000000000         2.028089877810
    4          1.850000000000        -2.588192842472
    5          0.800000000000         1.438560010431
    6          0.300000000000        -0.429208871529
 D 6
    1         32.000000000000        -0.069348357794
    2         10.100000000000         1.750167741277
    3          4.000000000000        -2.272286482698
    4          1.850000000000         1.643961919013
    5          0.800000000000        -0.719612533734
    6          0.300000000000         0.200347867429
 D 6
    1         32.000000000000         1.351971147629
    2         10.100000000000        -1.327074389451
    3          4.000000000000         1.086502720215
    4          1.850000000000        -0.703569083600
    5          0.800000000000         0.303726635352
    6          0.300000000000        -0.085624135784
 F 3
    1          3.600000000000         0.061453362628
    2          1.550000000000        -0.009819966805
    3          0.700000000000         0.989760880366
 F 3
    1          3.600000000000        -0.062982566753
    2          1.550000000000         1.474988870257
    3          0.700000000000        -1.061615013488
 F 3
    1          3.600000000000         1.506295580119
    2          1.550000000000        -1.442772339254
    3          0.700000000000         0.593446851836
 G 2
    1          4.200000000000         0.143687998948
    2          1.800000000000        -1.082572033301
 G 2
    1          4.200000000000         1.265259403395
    2          1.800000000000        -0.670496377049
 H 1
    1          2.250000000000         1.000000000000
 end
  // -----------------------------------------------
  // The basis set
  // -----------------------------------------------
  BAS[ATNO] = new BFNGauss[NSH];
  // Basis function   1 L = s
  InitBFNGauss(BAS[ATNO][  0]);
  BAS[ATNO][  0].l  = 0;
  BAS[ATNO][  0].ng = 26;
  BAS[ATNO][  0].a[  0] =   2522600.000000000000;     BAS[ATNO][  0].d[  0] =         0.000001622279;
  BAS[ATNO][  0].a[  1] =    377060.000000000000;     BAS[ATNO][  0].d[  1] =         0.000012661532;
  BAS[ATNO][  0].a[  2] =     85713.000000000000;     BAS[ATNO][  0].d[  2] =         0.000066541506;
  BAS[ATNO][  0].a[  3] =     24261.000000000000;     BAS[ATNO][  0].d[  3] =         0.000282030506;
  BAS[ATNO][  0].a[  4] =      7911.700000000000;     BAS[ATNO][  0].d[  4] =         0.001022894975;
  BAS[ATNO][  0].a[  5] =      2855.500000000000;     BAS[ATNO][  0].d[  5] =         0.003336069994;
  BAS[ATNO][  0].a[  6] =      1113.600000000000;     BAS[ATNO][  0].d[  6] =         0.009761438579;
  BAS[ATNO][  0].a[  7] =       461.890000000000;     BAS[ATNO][  0].d[  7] =         0.026114170940;
  BAS[ATNO][  0].a[  8] =       201.350000000000;     BAS[ATNO][  0].d[  8] =         0.060164814935;
  BAS[ATNO][  0].a[  9] =        91.198000000000;     BAS[ATNO][  0].d[  9] =         0.115489439504;
  BAS[ATNO][  0].a[ 10] =        42.680000000000;     BAS[ATNO][  0].d[ 10] =         0.123049194638;
  BAS[ATNO][  0].a[ 11] =     24261.000000000000;     BAS[ATNO][  0].d[ 11] =        -0.000000347120;
  BAS[ATNO][  0].a[ 12] =      7911.700000000000;     BAS[ATNO][  0].d[ 12] =         0.000003624256;
  BAS[ATNO][  0].a[ 13] =      2855.500000000000;     BAS[ATNO][  0].d[ 13] =         0.000012954630;
  BAS[ATNO][  0].a[ 14] =      1113.600000000000;     BAS[ATNO][  0].d[ 14] =         0.000188848728;
  BAS[ATNO][  0].a[ 15] =       461.890000000000;     BAS[ATNO][  0].d[ 15] =         0.000995628262;
  BAS[ATNO][  0].a[ 16] =       201.350000000000;     BAS[ATNO][  0].d[ 16] =         0.006620040498;
  BAS[ATNO][  0].a[ 17] =        91.198000000000;     BAS[ATNO][  0].d[ 17] =         0.029187420831;
  BAS[ATNO][  0].a[ 18] =        42.680000000000;     BAS[ATNO][  0].d[ 18] =         0.128082315292;
  BAS[ATNO][  0].a[ 19] =        20.742000000000;     BAS[ATNO][  0].d[ 19] =         0.314167070413;
  BAS[ATNO][  0].a[ 20] =        10.249000000000;     BAS[ATNO][  0].d[ 20] =         0.275853019814;
  BAS[ATNO][  0].a[ 21] =         5.101300000000;     BAS[ATNO][  0].d[ 21] =         0.046870254745;
  BAS[ATNO][  0].a[ 22] =         2.303100000000;     BAS[ATNO][  0].d[ 22] =         0.018612017415;
  BAS[ATNO][  0].a[ 23] =         1.053100000000;     BAS[ATNO][  0].d[ 23] =        -0.010356024817;
  BAS[ATNO][  0].a[ 24] =         0.472220000000;     BAS[ATNO][  0].d[ 24] =         0.004801840391;
  BAS[ATNO][  0].a[ 25] =         0.204660000000;     BAS[ATNO][  0].d[ 25] =        -0.001284135406;

  // Basis function   2 L = s
  InitBFNGauss(BAS[ATNO][  1]);
  BAS[ATNO][  1].l  = 0;
  BAS[ATNO][  1].ng = 26;
  BAS[ATNO][  1].a[  0] =   2522600.000000000000;     BAS[ATNO][  1].d[  0] =        -0.000000529340;
  BAS[ATNO][  1].a[  1] =    377060.000000000000;     BAS[ATNO][  1].d[  1] =        -0.000004131380;
  BAS[ATNO][  1].a[  2] =     85713.000000000000;     BAS[ATNO][  1].d[  2] =        -0.000021712087;
  BAS[ATNO][  1].a[  3] =     24261.000000000000;     BAS[ATNO][  1].d[  3] =        -0.000092024831;
  BAS[ATNO][  1].a[  4] =      7911.700000000000;     BAS[ATNO][  1].d[  4] =        -0.000333764382;
  BAS[ATNO][  1].a[  5] =      2855.500000000000;     BAS[ATNO][  1].d[  5] =        -0.001088539260;
  BAS[ATNO][  1].a[  6] =      1113.600000000000;     BAS[ATNO][  1].d[  6] =        -0.003185097778;
  BAS[ATNO][  1].a[  7] =       461.890000000000;     BAS[ATNO][  1].d[  7] =        -0.008520894454;
  BAS[ATNO][  1].a[  8] =       201.350000000000;     BAS[ATNO][  1].d[  8] =        -0.019631411583;
  BAS[ATNO][  1].a[  9] =        91.198000000000;     BAS[ATNO][  1].d[  9] =        -0.037683498617;
  BAS[ATNO][  1].a[ 10] =        42.680000000000;     BAS[ATNO][  1].d[ 10] =        -0.040150200537;
  BAS[ATNO][  1].a[ 11] =     24261.000000000000;     BAS[ATNO][  1].d[ 11] =         0.000000180226;
  BAS[ATNO][  1].a[ 12] =      7911.700000000000;     BAS[ATNO][  1].d[ 12] =        -0.000001881729;
  BAS[ATNO][  1].a[ 13] =      2855.500000000000;     BAS[ATNO][  1].d[ 13] =        -0.000006726100;
  BAS[ATNO][  1].a[ 14] =      1113.600000000000;     BAS[ATNO][  1].d[ 14] =        -0.000098051073;
  BAS[ATNO][  1].a[ 15] =       461.890000000000;     BAS[ATNO][  1].d[ 15] =        -0.000516934482;
  BAS[ATNO][  1].a[ 16] =       201.350000000000;     BAS[ATNO][  1].d[ 16] =        -0.003437153541;
  BAS[ATNO][  1].a[ 17] =        91.198000000000;     BAS[ATNO][  1].d[ 17] =        -0.015154234613;
  BAS[ATNO][  1].a[ 18] =        42.680000000000;     BAS[ATNO][  1].d[ 18] =        -0.066500889780;
  BAS[ATNO][  1].a[ 19] =        20.742000000000;     BAS[ATNO][  1].d[ 19] =        -0.163116896149;
  BAS[ATNO][  1].a[ 20] =        10.249000000000;     BAS[ATNO][  1].d[ 20] =        -0.211063733640;
  BAS[ATNO][  1].a[ 21] =         5.101300000000;     BAS[ATNO][  1].d[ 21] =         0.066768942748;
  BAS[ATNO][  1].a[ 22] =         2.303100000000;     BAS[ATNO][  1].d[ 22] =         0.634851612460;
  BAS[ATNO][  1].a[ 23] =         1.053100000000;     BAS[ATNO][  1].d[ 23] =         0.465220821736;
  BAS[ATNO][  1].a[ 24] =         0.472220000000;     BAS[ATNO][  1].d[ 24] =         0.003164170519;
  BAS[ATNO][  1].a[ 25] =         0.204660000000;     BAS[ATNO][  1].d[ 25] =         0.004206640161;

  // Basis function   3 L = s
  InitBFNGauss(BAS[ATNO][  2]);
  BAS[ATNO][  2].l  = 0;
  BAS[ATNO][  2].ng = 26;
  BAS[ATNO][  2].a[  0] =   2522600.000000000000;     BAS[ATNO][  2].d[  0] =         0.000000274865;
  BAS[ATNO][  2].a[  1] =    377060.000000000000;     BAS[ATNO][  2].d[  1] =         0.000002145259;
  BAS[ATNO][  2].a[  2] =     85713.000000000000;     BAS[ATNO][  2].d[  2] =         0.000011274208;
  BAS[ATNO][  2].a[  3] =     24261.000000000000;     BAS[ATNO][  2].d[  3] =         0.000047784770;
  BAS[ATNO][  2].a[  4] =      7911.700000000000;     BAS[ATNO][  2].d[  4] =         0.000173310333;
  BAS[ATNO][  2].a[  5] =      2855.500000000000;     BAS[ATNO][  2].d[  5] =         0.000565234373;
  BAS[ATNO][  2].a[  6] =      1113.600000000000;     BAS[ATNO][  2].d[  6] =         0.001653892342;
  BAS[ATNO][  2].a[  7] =       461.890000000000;     BAS[ATNO][  2].d[  7] =         0.004424555559;
  BAS[ATNO][  2].a[  8] =       201.350000000000;     BAS[ATNO][  2].d[  8] =         0.010193797345;
  BAS[ATNO][  2].a[  9] =        91.198000000000;     BAS[ATNO][  2].d[  9] =         0.019567515384;
  BAS[ATNO][  2].a[ 10] =        42.680000000000;     BAS[ATNO][  2].d[ 10] =         0.020848373837;
  BAS[ATNO][  2].a[ 11] =     24261.000000000000;     BAS[ATNO][  2].d[ 11] =        -0.000000101207;
  BAS[ATNO][  2].a[ 12] =      7911.700000000000;     BAS[ATNO][  2].d[ 12] =         0.000001056700;
  BAS[ATNO][  2].a[ 13] =      2855.500000000000;     BAS[ATNO][  2].d[ 13] =         0.000003777096;
  BAS[ATNO][  2].a[ 14] =      1113.600000000000;     BAS[ATNO][  2].d[ 14] =         0.000055061373;
  BAS[ATNO][  2].a[ 15] =       461.890000000000;     BAS[ATNO][  2].d[ 15] =         0.000290288740;
  BAS[ATNO][  2].a[ 16] =       201.350000000000;     BAS[ATNO][  2].d[ 16] =         0.001930161376;
  BAS[ATNO][  2].a[ 17] =        91.198000000000;     BAS[ATNO][  2].d[ 17] =         0.008509983041;
  BAS[ATNO][  2].a[ 18] =        42.680000000000;     BAS[ATNO][  2].d[ 18] =         0.037344112632;
  BAS[ATNO][  2].a[ 19] =        20.742000000000;     BAS[ATNO][  2].d[ 19] =         0.091599612608;
  BAS[ATNO][  2].a[ 20] =        10.249000000000;     BAS[ATNO][  2].d[ 20] =         0.129120675251;
  BAS[ATNO][  2].a[ 21] =         5.101300000000;     BAS[ATNO][  2].d[ 21] =        -0.046640751175;
  BAS[ATNO][  2].a[ 22] =         2.303100000000;     BAS[ATNO][  2].d[ 22] =        -0.686601473312;
  BAS[ATNO][  2].a[ 23] =         1.053100000000;     BAS[ATNO][  2].d[ 23] =        -0.601792549965;
  BAS[ATNO][  2].a[ 24] =         0.472220000000;     BAS[ATNO][  2].d[ 24] =         1.330136078736;
  BAS[ATNO][  2].a[ 25] =         0.204660000000;     BAS[ATNO][  2].d[ 25] =         0.258025554894;

  // Basis function   4 L = s
  InitBFNGauss(BAS[ATNO][  3]);
  BAS[ATNO][  3].l  = 0;
  BAS[ATNO][  3].ng = 26;
  BAS[ATNO][  3].a[  0] =   2522600.000000000000;     BAS[ATNO][  3].d[  0] =         0.000000198225;
  BAS[ATNO][  3].a[  1] =    377060.000000000000;     BAS[ATNO][  3].d[  1] =         0.000001547106;
  BAS[ATNO][  3].a[  2] =     85713.000000000000;     BAS[ATNO][  3].d[  2] =         0.000008130670;
  BAS[ATNO][  3].a[  3] =     24261.000000000000;     BAS[ATNO][  3].d[  3] =         0.000034461153;
  BAS[ATNO][  3].a[  4] =      7911.700000000000;     BAS[ATNO][  3].d[  4] =         0.000124986977;
  BAS[ATNO][  3].a[  5] =      2855.500000000000;     BAS[ATNO][  3].d[  5] =         0.000407632567;
  BAS[ATNO][  3].a[  6] =      1113.600000000000;     BAS[ATNO][  3].d[  6] =         0.001192744839;
  BAS[ATNO][  3].a[  7] =       461.890000000000;     BAS[ATNO][  3].d[  7] =         0.003190876259;
  BAS[ATNO][  3].a[  8] =       201.350000000000;     BAS[ATNO][  3].d[  8] =         0.007351505817;
  BAS[ATNO][  3].a[  9] =        91.198000000000;     BAS[ATNO][  3].d[  9] =         0.014111591422;
  BAS[ATNO][  3].a[ 10] =        42.680000000000;     BAS[ATNO][  3].d[ 10] =         0.015035313765;
  BAS[ATNO][  3].a[ 11] =     24261.000000000000;     BAS[ATNO][  3].d[ 11] =        -0.000000069102;
  BAS[ATNO][  3].a[ 12] =      7911.700000000000;     BAS[ATNO][  3].d[ 12] =         0.000000721485;
  BAS[ATNO][  3].a[ 13] =      2855.500000000000;     BAS[ATNO][  3].d[ 13] =         0.000002578895;
  BAS[ATNO][  3].a[ 14] =      1113.600000000000;     BAS[ATNO][  3].d[ 14] =         0.000037594368;
  BAS[ATNO][  3].a[ 15] =       461.890000000000;     BAS[ATNO][  3].d[ 15] =         0.000198201044;
  BAS[ATNO][  3].a[ 16] =       201.350000000000;     BAS[ATNO][  3].d[ 16] =         0.001317860276;
  BAS[ATNO][  3].a[ 17] =        91.198000000000;     BAS[ATNO][  3].d[ 17] =         0.005810378726;
  BAS[ATNO][  3].a[ 18] =        42.680000000000;     BAS[ATNO][  3].d[ 18] =         0.025497517038;
  BAS[ATNO][  3].a[ 19] =        20.742000000000;     BAS[ATNO][  3].d[ 19] =         0.062541656999;
  BAS[ATNO][  3].a[ 20] =        10.249000000000;     BAS[ATNO][  3].d[ 20] =         0.126725662277;
  BAS[ATNO][  3].a[ 21] =         5.101300000000;     BAS[ATNO][  3].d[ 21] =        -0.126297957159;
  BAS[ATNO][  3].a[ 22] =         2.303100000000;     BAS[ATNO][  3].d[ 22] =        -0.401619462943;
  BAS[ATNO][  3].a[ 23] =         1.053100000000;     BAS[ATNO][  3].d[ 23] =        -1.121999720862;
  BAS[ATNO][  3].a[ 24] =         0.472220000000;     BAS[ATNO][  3].d[ 24] =         3.687543801430;
  BAS[ATNO][  3].a[ 25] =         0.204660000000;     BAS[ATNO][  3].d[ 25] =        -2.675225575359;

  // Basis function   5 L = s
  InitBFNGauss(BAS[ATNO][  4]);
  BAS[ATNO][  4].l  = 0;
  BAS[ATNO][  4].ng = 26;
  BAS[ATNO][  4].a[  0] =   2522600.000000000000;     BAS[ATNO][  4].d[  0] =         0.000000301240;
  BAS[ATNO][  4].a[  1] =    377060.000000000000;     BAS[ATNO][  4].d[  1] =         0.000002351111;
  BAS[ATNO][  4].a[  2] =     85713.000000000000;     BAS[ATNO][  4].d[  2] =         0.000012356047;
  BAS[ATNO][  4].a[  3] =     24261.000000000000;     BAS[ATNO][  4].d[  3] =         0.000052370052;
  BAS[ATNO][  4].a[  4] =      7911.700000000000;     BAS[ATNO][  4].d[  4] =         0.000189940667;
  BAS[ATNO][  4].a[  5] =      2855.500000000000;     BAS[ATNO][  4].d[  5] =         0.000619472551;
  BAS[ATNO][  4].a[  6] =      1113.600000000000;     BAS[ATNO][  4].d[  6] =         0.001812594842;
  BAS[ATNO][  4].a[  7] =       461.890000000000;     BAS[ATNO][  4].d[  7] =         0.004849122509;
  BAS[ATNO][  4].a[  8] =       201.350000000000;     BAS[ATNO][  4].d[  8] =         0.011171963263;
  BAS[ATNO][  4].a[  9] =        91.198000000000;     BAS[ATNO][  4].d[  9] =         0.021445154892;
  BAS[ATNO][  4].a[ 10] =        42.680000000000;     BAS[ATNO][  4].d[ 10] =         0.022848920644;
  BAS[ATNO][  4].a[ 11] =     24261.000000000000;     BAS[ATNO][  4].d[ 11] =        -0.000000206893;
  BAS[ATNO][  4].a[ 12] =      7911.700000000000;     BAS[ATNO][  4].d[ 12] =         0.000002160163;
  BAS[ATNO][  4].a[ 13] =      2855.500000000000;     BAS[ATNO][  4].d[ 13] =         0.000007721341;
  BAS[ATNO][  4].a[ 14] =      1113.600000000000;     BAS[ATNO][  4].d[ 14] =         0.000112559398;
  BAS[ATNO][  4].a[ 15] =       461.890000000000;     BAS[ATNO][  4].d[ 15] =         0.000593423735;
  BAS[ATNO][  4].a[ 16] =       201.350000000000;     BAS[ATNO][  4].d[ 16] =         0.003945738898;
  BAS[ATNO][  4].a[ 17] =        91.198000000000;     BAS[ATNO][  4].d[ 17] =         0.017396561508;
  BAS[ATNO][  4].a[ 18] =        42.680000000000;     BAS[ATNO][  4].d[ 18] =         0.076340828092;
  BAS[ATNO][  4].a[ 19] =        20.742000000000;     BAS[ATNO][  4].d[ 19] =         0.187252816751;
  BAS[ATNO][  4].a[ 20] =        10.249000000000;     BAS[ATNO][  4].d[ 20] =        -0.275780725176;
  BAS[ATNO][  4].a[ 21] =         5.101300000000;     BAS[ATNO][  4].d[ 21] =         1.422398967176;
  BAS[ATNO][  4].a[ 22] =         2.303100000000;     BAS[ATNO][  4].d[ 22] =        -5.902992562346;
  BAS[ATNO][  4].a[ 23] =         1.053100000000;     BAS[ATNO][  4].d[ 23] =         9.080306380800;
  BAS[ATNO][  4].a[ 24] =         0.472220000000;     BAS[ATNO][  4].d[ 24] =        -6.750063038383;
  BAS[ATNO][  4].a[ 25] =         0.204660000000;     BAS[ATNO][  4].d[ 25] =         2.241109323222;

  // Basis function   6 L = s
  InitBFNGauss(BAS[ATNO][  5]);
  BAS[ATNO][  5].l  = 0;
  BAS[ATNO][  5].ng = 26;
  BAS[ATNO][  5].a[  0] =   2522600.000000000000;     BAS[ATNO][  5].d[  0] =         0.000000999443;
  BAS[ATNO][  5].a[  1] =    377060.000000000000;     BAS[ATNO][  5].d[  1] =         0.000007800438;
  BAS[ATNO][  5].a[  2] =     85713.000000000000;     BAS[ATNO][  5].d[  2] =         0.000040994477;
  BAS[ATNO][  5].a[  3] =     24261.000000000000;     BAS[ATNO][  5].d[  3] =         0.000173751599;
  BAS[ATNO][  5].a[  4] =      7911.700000000000;     BAS[ATNO][  5].d[  4] =         0.000630178770;
  BAS[ATNO][  5].a[  5] =      2855.500000000000;     BAS[ATNO][  5].d[  5] =         0.002055265238;
  BAS[ATNO][  5].a[  6] =      1113.600000000000;     BAS[ATNO][  5].d[  6] =         0.006013766326;
  BAS[ATNO][  5].a[  7] =       461.890000000000;     BAS[ATNO][  5].d[  7] =         0.016088255901;
  BAS[ATNO][  5].a[  8] =       201.350000000000;     BAS[ATNO][  5].d[  8] =         0.037065964727;
  BAS[ATNO][  5].a[  9] =        91.198000000000;     BAS[ATNO][  5].d[  9] =         0.071150015096;
  BAS[ATNO][  5].a[ 10] =        42.680000000000;     BAS[ATNO][  5].d[ 10] =         0.075807381988;
  BAS[ATNO][  5].a[ 11] =     24261.000000000000;     BAS[ATNO][  5].d[ 11] =        -0.000000039889;
  BAS[ATNO][  5].a[ 12] =      7911.700000000000;     BAS[ATNO][  5].d[ 12] =         0.000000416481;
  BAS[ATNO][  5].a[ 13] =      2855.500000000000;     BAS[ATNO][  5].d[ 13] =         0.000001488681;
  BAS[ATNO][  5].a[ 14] =      1113.600000000000;     BAS[ATNO][  5].d[ 14] =         0.000021701550;
  BAS[ATNO][  5].a[ 15] =       461.890000000000;     BAS[ATNO][  5].d[ 15] =         0.000114412615;
  BAS[ATNO][  5].a[ 16] =       201.350000000000;     BAS[ATNO][  5].d[ 16] =         0.000760741906;
  BAS[ATNO][  5].a[ 17] =        91.198000000000;     BAS[ATNO][  5].d[ 17] =         0.003354072256;
  BAS[ATNO][  5].a[ 18] =        42.680000000000;     BAS[ATNO][  5].d[ 18] =         0.014718578344;
  BAS[ATNO][  5].a[ 19] =        20.742000000000;     BAS[ATNO][  5].d[ 19] =         0.036102506645;
  BAS[ATNO][  5].a[ 20] =        10.249000000000;     BAS[ATNO][  5].d[ 20] =         2.942347042775;
  BAS[ATNO][  5].a[ 21] =         5.101300000000;     BAS[ATNO][  5].d[ 21] =        -8.741274201788;
  BAS[ATNO][  5].a[ 22] =         2.303100000000;     BAS[ATNO][  5].d[ 22] =        10.817213164235;
  BAS[ATNO][  5].a[ 23] =         1.053100000000;     BAS[ATNO][  5].d[ 23] =        -8.087521376951;
  BAS[ATNO][  5].a[ 24] =         0.472220000000;     BAS[ATNO][  5].d[ 24] =         3.877482483751;
  BAS[ATNO][  5].a[ 25] =         0.204660000000;     BAS[ATNO][  5].d[ 25] =        -1.017337252148;

  // Basis function   7 L = s
  InitBFNGauss(BAS[ATNO][  6]);
  BAS[ATNO][  6].l  = 0;
  BAS[ATNO][  6].ng = 26;
  BAS[ATNO][  6].a[  0] =   2522600.000000000000;     BAS[ATNO][  6].d[  0] =         0.000000024037;
  BAS[ATNO][  6].a[  1] =    377060.000000000000;     BAS[ATNO][  6].d[  1] =         0.000000187602;
  BAS[ATNO][  6].a[  2] =     85713.000000000000;     BAS[ATNO][  6].d[  2] =         0.000000985925;
  BAS[ATNO][  6].a[  3] =     24261.000000000000;     BAS[ATNO][  6].d[  3] =         0.000004178758;
  BAS[ATNO][  6].a[  4] =      7911.700000000000;     BAS[ATNO][  6].d[  4] =         0.000015155917;
  BAS[ATNO][  6].a[  5] =      2855.500000000000;     BAS[ATNO][  6].d[  5] =         0.000049429514;
  BAS[ATNO][  6].a[  6] =      1113.600000000000;     BAS[ATNO][  6].d[  6] =         0.000144632206;
  BAS[ATNO][  6].a[  7] =       461.890000000000;     BAS[ATNO][  6].d[  7] =         0.000386925566;
  BAS[ATNO][  6].a[  8] =       201.350000000000;     BAS[ATNO][  6].d[  8] =         0.000891443391;
  BAS[ATNO][  6].a[  9] =        91.198000000000;     BAS[ATNO][  6].d[  9] =         0.001711171183;
  BAS[ATNO][  6].a[ 10] =        42.680000000000;     BAS[ATNO][  6].d[ 10] =         0.001823181728;
  BAS[ATNO][  6].a[ 11] =     24261.000000000000;     BAS[ATNO][  6].d[ 11] =        -0.000002066270;
  BAS[ATNO][  6].a[ 12] =      7911.700000000000;     BAS[ATNO][  6].d[ 12] =         0.000021573809;
  BAS[ATNO][  6].a[ 13] =      2855.500000000000;     BAS[ATNO][  6].d[ 13] =         0.000077113961;
  BAS[ATNO][  6].a[ 14] =      1113.600000000000;     BAS[ATNO][  6].d[ 14] =         0.001124144318;
  BAS[ATNO][  6].a[ 15] =       461.890000000000;     BAS[ATNO][  6].d[ 15] =         0.005926594599;
  BAS[ATNO][  6].a[ 16] =       201.350000000000;     BAS[ATNO][  6].d[ 16] =         0.039406571467;
  BAS[ATNO][  6].a[ 17] =        91.198000000000;     BAS[ATNO][  6].d[ 17] =         0.173741563255;
  BAS[ATNO][  6].a[ 18] =        42.680000000000;     BAS[ATNO][  6].d[ 18] =         0.762425080752;
  BAS[ATNO][  6].a[ 19] =        20.742000000000;     BAS[ATNO][  6].d[ 19] =         1.870116522195;
  BAS[ATNO][  6].a[ 20] =        10.249000000000;     BAS[ATNO][  6].d[ 20] =        -8.578169849096;
  BAS[ATNO][  6].a[ 21] =         5.101300000000;     BAS[ATNO][  6].d[ 21] =        10.635670446410;
  BAS[ATNO][  6].a[ 22] =         2.303100000000;     BAS[ATNO][  6].d[ 22] =        -7.748638178576;
  BAS[ATNO][  6].a[ 23] =         1.053100000000;     BAS[ATNO][  6].d[ 23] =         4.520782144772;
  BAS[ATNO][  6].a[ 24] =         0.472220000000;     BAS[ATNO][  6].d[ 24] =        -1.972049181580;
  BAS[ATNO][  6].a[ 25] =         0.204660000000;     BAS[ATNO][  6].d[ 25] =         0.504843674250;

  // Basis function   8 L = s
  InitBFNGauss(BAS[ATNO][  7]);
  BAS[ATNO][  7].l  = 0;
  BAS[ATNO][  7].ng = 26;
  BAS[ATNO][  7].a[  0] =   2522600.000000000000;     BAS[ATNO][  7].d[  0] =         0.000015361615;
  BAS[ATNO][  7].a[  1] =    377060.000000000000;     BAS[ATNO][  7].d[  1] =         0.000119894067;
  BAS[ATNO][  7].a[  2] =     85713.000000000000;     BAS[ATNO][  7].d[  2] =         0.000630092159;
  BAS[ATNO][  7].a[  3] =     24261.000000000000;     BAS[ATNO][  7].d[  3] =         0.002670591936;
  BAS[ATNO][  7].a[  4] =      7911.700000000000;     BAS[ATNO][  7].d[  4] =         0.009685955984;
  BAS[ATNO][  7].a[  5] =      2855.500000000000;     BAS[ATNO][  7].d[  5] =         0.031589779891;
  BAS[ATNO][  7].a[  6] =      1113.600000000000;     BAS[ATNO][  7].d[  6] =         0.092432621830;
  BAS[ATNO][  7].a[  7] =       461.890000000000;     BAS[ATNO][  7].d[  7] =         0.247279257802;
  BAS[ATNO][  7].a[  8] =       201.350000000000;     BAS[ATNO][  7].d[  8] =         0.569710247248;
  BAS[ATNO][  7].a[  9] =        91.198000000000;     BAS[ATNO][  7].d[  9] =         1.093587958424;
  BAS[ATNO][  7].a[ 10] =        42.680000000000;     BAS[ATNO][  7].d[ 10] =         1.165172487873;
  BAS[ATNO][  7].a[ 11] =     24261.000000000000;     BAS[ATNO][  7].d[ 11] =         0.000004445904;
  BAS[ATNO][  7].a[ 12] =      7911.700000000000;     BAS[ATNO][  7].d[ 12] =        -0.000046419440;
  BAS[ATNO][  7].a[ 13] =      2855.500000000000;     BAS[ATNO][  7].d[ 13] =        -0.000165922805;
  BAS[ATNO][  7].a[ 14] =      1113.600000000000;     BAS[ATNO][  7].d[ 14] =        -0.002418773142;
  BAS[ATNO][  7].a[ 15] =       461.890000000000;     BAS[ATNO][  7].d[ 15] =        -0.012751999550;
  BAS[ATNO][  7].a[ 16] =       201.350000000000;     BAS[ATNO][  7].d[ 16] =        -0.084789430630;
  BAS[ATNO][  7].a[ 17] =        91.198000000000;     BAS[ATNO][  7].d[ 17] =        -0.373832274082;
  BAS[ATNO][  7].a[ 18] =        42.680000000000;     BAS[ATNO][  7].d[ 18] =        -1.640477364281;
  BAS[ATNO][  7].a[ 19] =        20.742000000000;     BAS[ATNO][  7].d[ 19] =        -4.023849556736;
  BAS[ATNO][  7].a[ 20] =        10.249000000000;     BAS[ATNO][  7].d[ 20] =         7.530354102104;
  BAS[ATNO][  7].a[ 21] =         5.101300000000;     BAS[ATNO][  7].d[ 21] =        -6.800986872867;
  BAS[ATNO][  7].a[ 22] =         2.303100000000;     BAS[ATNO][  7].d[ 22] =         4.360488065003;
  BAS[ATNO][  7].a[ 23] =         1.053100000000;     BAS[ATNO][  7].d[ 23] =        -2.486490805453;
  BAS[ATNO][  7].a[ 24] =         0.472220000000;     BAS[ATNO][  7].d[ 24] =         1.092732625597;
  BAS[ATNO][  7].a[ 25] =         0.204660000000;     BAS[ATNO][  7].d[ 25] =        -0.282759513166;

  // Basis function   9 L = p
  InitBFNGauss(BAS[ATNO][  8]);
  BAS[ATNO][  8].l  = 1;
  BAS[ATNO][  8].ng = 11;
  BAS[ATNO][  8].a[  0] =      1169.900000000000;     BAS[ATNO][  8].d[  0] =         0.000188840490;
  BAS[ATNO][  8].a[  1] =       277.110000000000;     BAS[ATNO][  8].d[  1] =         0.001654462210;
  BAS[ATNO][  8].a[  2] =        89.264000000000;     BAS[ATNO][  8].d[  2] =         0.009285964076;
  BAS[ATNO][  8].a[  3] =        33.100000000000;     BAS[ATNO][  8].d[  3] =         0.039174120852;
  BAS[ATNO][  8].a[  4] =        14.031000000000;     BAS[ATNO][  8].d[  4] =         0.110788097092;
  BAS[ATNO][  8].a[  5] =         6.298500000000;     BAS[ATNO][  8].d[  5] =         0.286107407673;
  BAS[ATNO][  8].a[  6] =         2.923400000000;     BAS[ATNO][  8].d[  6] =         0.421670166062;
  BAS[ATNO][  8].a[  7] =         1.353700000000;     BAS[ATNO][  8].d[  7] =         0.281819274499;
  BAS[ATNO][  8].a[  8] =         0.613620000000;     BAS[ATNO][  8].d[  8] =         0.019010019869;
  BAS[ATNO][  8].a[  9] =         0.263620000000;     BAS[ATNO][  8].d[  9] =         0.002722109761;
  BAS[ATNO][  8].a[ 10] =         0.107550000000;     BAS[ATNO][  8].d[ 10] =        -0.000925070556;

  // Basis function  10 L = p
  InitBFNGauss(BAS[ATNO][  9]);
  BAS[ATNO][  9].l  = 1;
  BAS[ATNO][  9].ng = 11;
  BAS[ATNO][  9].a[  0] =      1169.900000000000;     BAS[ATNO][  9].d[  0] =        -0.000112339088;
  BAS[ATNO][  9].a[  1] =       277.110000000000;     BAS[ATNO][  9].d[  1] =        -0.000984221002;
  BAS[ATNO][  9].a[  2] =        89.264000000000;     BAS[ATNO][  9].d[  2] =        -0.005524115819;
  BAS[ATNO][  9].a[  3] =        33.100000000000;     BAS[ATNO][  9].d[  3] =        -0.023304244873;
  BAS[ATNO][  9].a[  4] =        14.031000000000;     BAS[ATNO][  9].d[  4] =        -0.065906595666;
  BAS[ATNO][  9].a[  5] =         6.298500000000;     BAS[ATNO][  9].d[  5] =        -0.191399975983;
  BAS[ATNO][  9].a[  6] =         2.923400000000;     BAS[ATNO][  9].d[  6] =        -0.297520004824;
  BAS[ATNO][  9].a[  7] =         1.353700000000;     BAS[ATNO][  9].d[  7] =        -0.018857712982;
  BAS[ATNO][  9].a[  8] =         0.613620000000;     BAS[ATNO][  9].d[  8] =         0.828564349791;
  BAS[ATNO][  9].a[  9] =         0.263620000000;     BAS[ATNO][  9].d[  9] =         0.283233796885;
  BAS[ATNO][  9].a[ 10] =         0.107550000000;     BAS[ATNO][  9].d[ 10] =        -0.016821621752;

  // Basis function  11 L = p
  InitBFNGauss(BAS[ATNO][ 10]);
  BAS[ATNO][ 10].l  = 1;
  BAS[ATNO][ 10].ng = 11;
  BAS[ATNO][ 10].a[  0] =      1169.900000000000;     BAS[ATNO][ 10].d[  0] =        -0.000075096652;
  BAS[ATNO][ 10].a[  1] =       277.110000000000;     BAS[ATNO][ 10].d[  1] =        -0.000657933967;
  BAS[ATNO][ 10].a[  2] =        89.264000000000;     BAS[ATNO][ 10].d[  2] =        -0.003692771672;
  BAS[ATNO][ 10].a[  3] =        33.100000000000;     BAS[ATNO][ 10].d[  3] =        -0.015578466876;
  BAS[ATNO][ 10].a[  4] =        14.031000000000;     BAS[ATNO][ 10].d[  4] =        -0.044057369080;
  BAS[ATNO][ 10].a[  5] =         6.298500000000;     BAS[ATNO][ 10].d[  5] =        -0.140222785506;
  BAS[ATNO][ 10].a[  6] =         2.923400000000;     BAS[ATNO][ 10].d[  6] =        -0.195724593540;
  BAS[ATNO][ 10].a[  7] =         1.353700000000;     BAS[ATNO][ 10].d[  7] =         0.011561700371;
  BAS[ATNO][ 10].a[  8] =         0.613620000000;     BAS[ATNO][ 10].d[  8] =         1.210909415128;
  BAS[ATNO][ 10].a[  9] =         0.263620000000;     BAS[ATNO][ 10].d[  9] =        -0.933503087566;
  BAS[ATNO][ 10].a[ 10] =         0.107550000000;     BAS[ATNO][ 10].d[ 10] =        -0.554947999717;

  // Basis function  12 L = p
  InitBFNGauss(BAS[ATNO][ 11]);
  BAS[ATNO][ 11].l  = 1;
  BAS[ATNO][ 11].ng = 11;
  BAS[ATNO][ 11].a[  0] =      1169.900000000000;     BAS[ATNO][ 11].d[  0] =         0.000066333821;
  BAS[ATNO][ 11].a[  1] =       277.110000000000;     BAS[ATNO][ 11].d[  1] =         0.000581161379;
  BAS[ATNO][ 11].a[  2] =        89.264000000000;     BAS[ATNO][ 11].d[  2] =         0.003261871837;
  BAS[ATNO][ 11].a[  3] =        33.100000000000;     BAS[ATNO][ 11].d[  3] =         0.013760656458;
  BAS[ATNO][ 11].a[  4] =        14.031000000000;     BAS[ATNO][ 11].d[  4] =         0.038916430301;
  BAS[ATNO][ 11].a[  5] =         6.298500000000;     BAS[ATNO][ 11].d[  5] =         0.138597524548;
  BAS[ATNO][ 11].a[  6] =         2.923400000000;     BAS[ATNO][ 11].d[  6] =         0.147943334791;
  BAS[ATNO][ 11].a[  7] =         1.353700000000;     BAS[ATNO][ 11].d[  7] =         0.043564052651;
  BAS[ATNO][ 11].a[  8] =         0.613620000000;     BAS[ATNO][ 11].d[  8] =        -1.704195824597;
  BAS[ATNO][ 11].a[  9] =         0.263620000000;     BAS[ATNO][ 11].d[  9] =         2.909233604015;
  BAS[ATNO][ 11].a[ 10] =         0.107550000000;     BAS[ATNO][ 11].d[ 10] =        -1.881317930811;

  // Basis function  13 L = p
  InitBFNGauss(BAS[ATNO][ 12]);
  BAS[ATNO][ 12].l  = 1;
  BAS[ATNO][ 12].ng = 11;
  BAS[ATNO][ 12].a[  0] =      1169.900000000000;     BAS[ATNO][ 12].d[  0] =         0.000209958272;
  BAS[ATNO][ 12].a[  1] =       277.110000000000;     BAS[ATNO][ 12].d[  1] =         0.001839478530;
  BAS[ATNO][ 12].a[  2] =        89.264000000000;     BAS[ATNO][ 12].d[  2] =         0.010324401153;
  BAS[ATNO][ 12].a[  3] =        33.100000000000;     BAS[ATNO][ 12].d[  3] =         0.043554910956;
  BAS[ATNO][ 12].a[  4] =        14.031000000000;     BAS[ATNO][ 12].d[  4] =         0.123177383405;
  BAS[ATNO][ 12].a[  5] =         6.298500000000;     BAS[ATNO][ 12].d[  5] =         0.048420908532;
  BAS[ATNO][ 12].a[  6] =         2.923400000000;     BAS[ATNO][ 12].d[  6] =         1.678834652197;
  BAS[ATNO][ 12].a[  7] =         1.353700000000;     BAS[ATNO][ 12].d[  7] =        -4.420506898572;
  BAS[ATNO][ 12].a[  8] =         0.613620000000;     BAS[ATNO][ 12].d[  8] =         4.649123245180;
  BAS[ATNO][ 12].a[  9] =         0.263620000000;     BAS[ATNO][ 12].d[  9] =        -2.735785780736;
  BAS[ATNO][ 12].a[ 10] =         0.107550000000;     BAS[ATNO][ 12].d[ 10] =         0.881030117364;

  // Basis function  14 L = p
  InitBFNGauss(BAS[ATNO][ 13]);
  BAS[ATNO][ 13].l  = 1;
  BAS[ATNO][ 13].ng = 11;
  BAS[ATNO][ 13].a[  0] =      1169.900000000000;     BAS[ATNO][ 13].d[  0] =        -0.000193994715;
  BAS[ATNO][ 13].a[  1] =       277.110000000000;     BAS[ATNO][ 13].d[  1] =        -0.001699619215;
  BAS[ATNO][ 13].a[  2] =        89.264000000000;     BAS[ATNO][ 13].d[  2] =        -0.009539415816;
  BAS[ATNO][ 13].a[  3] =        33.100000000000;     BAS[ATNO][ 13].d[  3] =        -0.040243341990;
  BAS[ATNO][ 13].a[  4] =        14.031000000000;     BAS[ATNO][ 13].d[  4] =        -0.113811955001;
  BAS[ATNO][ 13].a[  5] =         6.298500000000;     BAS[ATNO][ 13].d[  5] =        -2.296088576147;
  BAS[ATNO][ 13].a[  6] =         2.923400000000;     BAS[ATNO][ 13].d[  6] =         4.955132250326;
  BAS[ATNO][ 13].a[  7] =         1.353700000000;     BAS[ATNO][ 13].d[  7] =        -4.739742315913;
  BAS[ATNO][ 13].a[  8] =         0.613620000000;     BAS[ATNO][ 13].d[  8] =         2.880035325790;
  BAS[ATNO][ 13].a[  9] =         0.263620000000;     BAS[ATNO][ 13].d[  9] =        -1.263877981395;
  BAS[ATNO][ 13].a[ 10] =         0.107550000000;     BAS[ATNO][ 13].d[ 10] =         0.357627216651;

  // Basis function  15 L = p
  InitBFNGauss(BAS[ATNO][ 14]);
  BAS[ATNO][ 14].l  = 1;
  BAS[ATNO][ 14].ng = 11;
  BAS[ATNO][ 14].a[  0] =      1169.900000000000;     BAS[ATNO][ 14].d[  0] =         0.002408301007;
  BAS[ATNO][ 14].a[  1] =       277.110000000000;     BAS[ATNO][ 14].d[  1] =         0.021099516385;
  BAS[ATNO][ 14].a[  2] =        89.264000000000;     BAS[ATNO][ 14].d[  2] =         0.118424796914;
  BAS[ATNO][ 14].a[  3] =        33.100000000000;     BAS[ATNO][ 14].d[  3] =         0.499591347556;
  BAS[ATNO][ 14].a[  4] =        14.031000000000;     BAS[ATNO][ 14].d[  4] =         1.412891304642;
  BAS[ATNO][ 14].a[  5] =         6.298500000000;     BAS[ATNO][ 14].d[  5] =        -3.651459080802;
  BAS[ATNO][ 14].a[  6] =         2.923400000000;     BAS[ATNO][ 14].d[  6] =         3.775290004921;
  BAS[ATNO][ 14].a[  7] =         1.353700000000;     BAS[ATNO][ 14].d[  7] =        -2.601690702591;
  BAS[ATNO][ 14].a[  8] =         0.613620000000;     BAS[ATNO][ 14].d[  8] =         1.395157505324;
  BAS[ATNO][ 14].a[  9] =         0.263620000000;     BAS[ATNO][ 14].d[  9] =        -0.593027904218;
  BAS[ATNO][ 14].a[ 10] =         0.107550000000;     BAS[ATNO][ 14].d[ 10] =         0.167437841165;

  // Basis function  16 L = d
  InitBFNGauss(BAS[ATNO][ 15]);
  BAS[ATNO][ 15].l  = 2;
  BAS[ATNO][ 15].ng = 6;
  BAS[ATNO][ 15].a[  0] =        32.000000000000;     BAS[ATNO][ 15].d[  0] =         0.002721224650;
  BAS[ATNO][ 15].a[  1] =        10.100000000000;     BAS[ATNO][ 15].d[  1] =         0.022545810536;
  BAS[ATNO][ 15].a[  2] =         4.000000000000;     BAS[ATNO][ 15].d[  2] =         0.099904259459;
  BAS[ATNO][ 15].a[  3] =         1.850000000000;     BAS[ATNO][ 15].d[  3] =         0.294450109507;
  BAS[ATNO][ 15].a[  4] =         0.800000000000;     BAS[ATNO][ 15].d[  4] =         0.593856267686;
  BAS[ATNO][ 15].a[  5] =         0.300000000000;     BAS[ATNO][ 15].d[  5] =         0.168124818527;

  // Basis function  17 L = d
  InitBFNGauss(BAS[ATNO][ 16]);
  BAS[ATNO][ 16].l  = 2;
  BAS[ATNO][ 16].ng = 6;
  BAS[ATNO][ 16].a[  0] =        32.000000000000;     BAS[ATNO][ 16].d[  0] =        -0.002514276888;
  BAS[ATNO][ 16].a[  1] =        10.100000000000;     BAS[ATNO][ 16].d[  1] =        -0.018702186061;
  BAS[ATNO][ 16].a[  2] =         4.000000000000;     BAS[ATNO][ 16].d[  2] =        -0.095743845565;
  BAS[ATNO][ 16].a[  3] =         1.850000000000;     BAS[ATNO][ 16].d[  3] =        -0.268278465101;
  BAS[ATNO][ 16].a[  4] =         0.800000000000;     BAS[ATNO][ 16].d[  4] =        -0.490921982015;
  BAS[ATNO][ 16].a[  5] =         0.300000000000;     BAS[ATNO][ 16].d[  5] =         1.166124879526;

  // Basis function  18 L = d
  InitBFNGauss(BAS[ATNO][ 17]);
  BAS[ATNO][ 17].l  = 2;
  BAS[ATNO][ 17].ng = 6;
  BAS[ATNO][ 17].a[  0] =        32.000000000000;     BAS[ATNO][ 17].d[  0] =         0.002157201514;
  BAS[ATNO][ 17].a[  1] =        10.100000000000;     BAS[ATNO][ 17].d[  1] =        -0.096435202019;
  BAS[ATNO][ 17].a[  2] =         4.000000000000;     BAS[ATNO][ 17].d[  2] =         0.046899966016;
  BAS[ATNO][ 17].a[  3] =         1.850000000000;     BAS[ATNO][ 17].d[  3] =        -1.538089836541;
  BAS[ATNO][ 17].a[  4] =         0.800000000000;     BAS[ATNO][ 17].d[  4] =         2.017963639105;
  BAS[ATNO][ 17].a[  5] =         0.300000000000;     BAS[ATNO][ 17].d[  5] =        -0.933590262266;

  // Basis function  19 L = d
  InitBFNGauss(BAS[ATNO][ 18]);
  BAS[ATNO][ 18].l  = 2;
  BAS[ATNO][ 18].ng = 6;
  BAS[ATNO][ 18].a[  0] =        32.000000000000;     BAS[ATNO][ 18].d[  0] =        -0.042118277041;
  BAS[ATNO][ 18].a[  1] =        10.100000000000;     BAS[ATNO][ 18].d[  1] =         0.098457641570;
  BAS[ATNO][ 18].a[  2] =         4.000000000000;     BAS[ATNO][ 18].d[  2] =        -2.028089877810;
  BAS[ATNO][ 18].a[  3] =         1.850000000000;     BAS[ATNO][ 18].d[  3] =         2.588192842472;
  BAS[ATNO][ 18].a[  4] =         0.800000000000;     BAS[ATNO][ 18].d[  4] =        -1.438560010431;
  BAS[ATNO][ 18].a[  5] =         0.300000000000;     BAS[ATNO][ 18].d[  5] =         0.429208871529;

  // Basis function  20 L = d
  InitBFNGauss(BAS[ATNO][ 19]);
  BAS[ATNO][ 19].l  = 2;
  BAS[ATNO][ 19].ng = 6;
  BAS[ATNO][ 19].a[  0] =        32.000000000000;     BAS[ATNO][ 19].d[  0] =         0.069348357794;
  BAS[ATNO][ 19].a[  1] =        10.100000000000;     BAS[ATNO][ 19].d[  1] =        -1.750167741277;
  BAS[ATNO][ 19].a[  2] =         4.000000000000;     BAS[ATNO][ 19].d[  2] =         2.272286482698;
  BAS[ATNO][ 19].a[  3] =         1.850000000000;     BAS[ATNO][ 19].d[  3] =        -1.643961919013;
  BAS[ATNO][ 19].a[  4] =         0.800000000000;     BAS[ATNO][ 19].d[  4] =         0.719612533734;
  BAS[ATNO][ 19].a[  5] =         0.300000000000;     BAS[ATNO][ 19].d[  5] =        -0.200347867429;

  // Basis function  21 L = d
  InitBFNGauss(BAS[ATNO][ 20]);
  BAS[ATNO][ 20].l  = 2;
  BAS[ATNO][ 20].ng = 6;
  BAS[ATNO][ 20].a[  0] =        32.000000000000;     BAS[ATNO][ 20].d[  0] =         1.351971147629;
  BAS[ATNO][ 20].a[  1] =        10.100000000000;     BAS[ATNO][ 20].d[  1] =        -1.327074389451;
  BAS[ATNO][ 20].a[  2] =         4.000000000000;     BAS[ATNO][ 20].d[  2] =         1.086502720215;
  BAS[ATNO][ 20].a[  3] =         1.850000000000;     BAS[ATNO][ 20].d[  3] =        -0.703569083600;
  BAS[ATNO][ 20].a[  4] =         0.800000000000;     BAS[ATNO][ 20].d[  4] =         0.303726635352;
  BAS[ATNO][ 20].a[  5] =         0.300000000000;     BAS[ATNO][ 20].d[  5] =        -0.085624135784;

  // Basis function  22 L = f
  InitBFNGauss(BAS[ATNO][ 21]);
  BAS[ATNO][ 21].l  = 3;
  BAS[ATNO][ 21].ng = 3;
  BAS[ATNO][ 21].a[  0] =         3.600000000000;     BAS[ATNO][ 21].d[  0] =         0.061453362628;
  BAS[ATNO][ 21].a[  1] =         1.550000000000;     BAS[ATNO][ 21].d[  1] =        -0.009819966805;
  BAS[ATNO][ 21].a[  2] =         0.700000000000;     BAS[ATNO][ 21].d[  2] =         0.989760880366;

  // Basis function  23 L = f
  InitBFNGauss(BAS[ATNO][ 22]);
  BAS[ATNO][ 22].l  = 3;
  BAS[ATNO][ 22].ng = 3;
  BAS[ATNO][ 22].a[  0] =         3.600000000000;     BAS[ATNO][ 22].d[  0] =        -0.062982566753;
  BAS[ATNO][ 22].a[  1] =         1.550000000000;     BAS[ATNO][ 22].d[  1] =         1.474988870257;
  BAS[ATNO][ 22].a[  2] =         0.700000000000;     BAS[ATNO][ 22].d[  2] =        -1.061615013488;

  // Basis function  24 L = f
  InitBFNGauss(BAS[ATNO][ 23]);
  BAS[ATNO][ 23].l  = 3;
  BAS[ATNO][ 23].ng = 3;
  BAS[ATNO][ 23].a[  0] =         3.600000000000;     BAS[ATNO][ 23].d[  0] =         1.506295580119;
  BAS[ATNO][ 23].a[  1] =         1.550000000000;     BAS[ATNO][ 23].d[  1] =        -1.442772339254;
  BAS[ATNO][ 23].a[  2] =         0.700000000000;     BAS[ATNO][ 23].d[  2] =         0.593446851836;

  // Basis function  25 L = g
  InitBFNGauss(BAS[ATNO][ 24]);
  BAS[ATNO][ 24].l  = 4;
  BAS[ATNO][ 24].ng = 2;
  BAS[ATNO][ 24].a[  0] =         4.200000000000;     BAS[ATNO][ 24].d[  0] =        -0.143687998948;
  BAS[ATNO][ 24].a[  1] =         1.800000000000;     BAS[ATNO][ 24].d[  1] =         1.082572033301;

  // Basis function  26 L = g
  InitBFNGauss(BAS[ATNO][ 25]);
  BAS[ATNO][ 25].l  = 4;
  BAS[ATNO][ 25].ng = 2;
  BAS[ATNO][ 25].a[  0] =         4.200000000000;     BAS[ATNO][ 25].d[  0] =         1.265259403395;
  BAS[ATNO][ 25].a[  1] =         1.800000000000;     BAS[ATNO][ 25].d[  1] =        -0.670496377049;

  // Basis function  27 L = h
  InitBFNGauss(BAS[ATNO][ 26]);
  BAS[ATNO][ 26].l  = 5;
  BAS[ATNO][ 26].ng = 1;
  BAS[ATNO][ 26].a[  0] =         2.250000000000;     BAS[ATNO][ 26].d[  0] =         1.000000000000;

-------
TIMINGS
-------

Total SCF time: 0 days 0 hours 0 min 1 sec 

Total time                  ....       1.777 sec
Sum of individual times     ....       1.574 sec  ( 88.5%)

Fock matrix formation       ....       1.099 sec  ( 61.9%)
  XC integration            ....       0.035 sec  (  3.1% of F)
    Basis function eval.    ....       0.005 sec  ( 13.5% of XC)
    Density eval.           ....       0.003 sec  (  8.9% of XC)
    XC-Functional eval.     ....       0.002 sec  (  4.4% of XC)
    XC-Potential eval.      ....       0.006 sec  ( 18.8% of XC)
Diagonalization             ....       0.005 sec  (  0.3%)
Density matrix formation    ....       0.002 sec  (  0.1%)
Population analysis         ....       0.002 sec  (  0.1%)
Initial guess               ....       0.093 sec  (  5.2%)
Orbital Transformation      ....       0.000 sec  (  0.0%)
Orbital Orthonormalization  ....       0.000 sec  (  0.0%)
DIIS solution               ....       0.001 sec  (  0.0%)
SOSCF solution              ....       0.002 sec  (  0.1%)
Grid generation             ....       0.370 sec  ( 20.8%)

-------------------------   --------------------
FINAL SINGLE POINT ENERGY       -94.197067371842
-------------------------   --------------------


                            ***************************************
                            *     ORCA property calculations      *
                            ***************************************

                                    ---------------------
                                    Active property flags
                                    ---------------------
   (+) Dipole Moment


------------------------------------------------------------------------------
                       ORCA ELECTRIC PROPERTIES CALCULATION
------------------------------------------------------------------------------

Dipole Moment Calculation                       ... on
Quadrupole Moment Calculation                   ... off
Polarizability Calculation                      ... off
GBWName                                         ... Ne_pc-4_68.5179945_.gbw
Electron density file                           ... Ne_pc-4_68.5179945_.scfp
The origin for moment calculation is the CENTER OF MASS  = ( 0.000000,  0.000000  0.000000)

-------------
DIPOLE MOMENT
-------------
                                X             Y             Z
Electronic contribution:     -0.00000      -0.00000      -0.00000
Nuclear contribution   :      0.00000       0.00000       0.00000
                        -----------------------------------------
Total Dipole Moment    :     -0.00000      -0.00000      -0.00000
                        -----------------------------------------
Magnitude (a.u.)       :      0.00000
Magnitude (Debye)      :      0.00000



--------------------
Rotational spectrum 
--------------------
 
Rotational constants in cm-1:     0.000000     0.000000     0.000000 
Rotational constants in MHz :     0.000000     0.000000     0.000000 

 Dipole components along the rotational axes: 
x,y,z [a.u.] :    -0.000000    -0.000000    -0.000000 
x,y,z [Debye]:    -0.000000    -0.000000    -0.000000 

 

Timings for individual modules:

Sum of individual times         ...        2.972 sec (=   0.050 min)
GTO integral calculation        ...        0.592 sec (=   0.010 min)  19.9 %
Relativistic integrals          ...        0.355 sec (=   0.006 min)  11.9 %
SCF iterations                  ...        2.025 sec (=   0.034 min)  68.1 %
                             ****ORCA TERMINATED NORMALLY****
TOTAL RUN TIME: 0 days 0 hours 0 minutes 3 seconds 291 msec
