
                                 *****************
                                 * O   R   C   A *
                                 *****************

           --- An Ab Initio, DFT and Semiempirical electronic structure package ---

                  #######################################################
                  #                        -***-                        #
                  #          Department of theory and spectroscopy      #
                  #               Directorship: Frank Neese             #
                  #        Max Planck Institute fuer Kohlenforschung    #
                  #                Kaiser Wilhelm Platz 1               #
                  #                 D-45470 Muelheim/Ruhr               #
                  #                      Germany                        #
                  #                                                     #
                  #                  All rights reserved                #
                  #                        -***-                        #
                  #######################################################


                         Program Version 4.2.1 -  RELEASE  -


 With contributions from (in alphabetic order):
   Daniel Aravena         : Magnetic Suceptibility
   Michael Atanasov       : Ab Initio Ligand Field Theory (pilot matlab implementation)
   Alexander A. Auer      : GIAO ZORA, VPT2
   Ute Becker             : Parallelization
   Giovanni Bistoni       : ED, misc. LED, open-shell LED, HFLD
   Martin Brehm           : Molecular dynamics
   Dmytro Bykov           : SCF Hessian
   Vijay G. Chilkuri      : MRCI spin determinant printing, contributions to CSF-ICE
   Dipayan Datta          : RHF DLPNO-CCSD density
   Achintya Kumar Dutta   : EOM-CC, STEOM-CC
   Dmitry Ganyushin       : Spin-Orbit,Spin-Spin,Magnetic field MRCI
   Miquel Garcia          : C-PCM Hessian, Gaussian charge scheme
   Yang Guo               : DLPNO-NEVPT2, CIM, IAO-localization
   Andreas Hansen         : Spin unrestricted coupled pair/coupled cluster methods
   Benjamin Helmich-Paris : CASSCF linear response (MC-RPA)
   Lee Huntington         : MR-EOM, pCC
   Robert Izsak           : Overlap fitted RIJCOSX, COSX-SCS-MP3, EOM
   Christian Kollmar      : KDIIS, OOCD, Brueckner-CCSD(T), CCSD density
   Simone Kossmann        : Meta GGA functionals, TD-DFT gradient, OOMP2, MP2 Hessian
   Martin Krupicka        : AUTO-CI
   Lucas Lang             : DCDCAS
   Dagmar Lenk            : GEPOL surface, SMD
   Dimitrios Liakos       : Extrapolation schemes; Compound Job, initial MDCI parallelization
   Dimitrios Manganas     : Further ROCIS development; embedding schemes
   Dimitrios Pantazis     : SARC Basis sets
   Taras Petrenko         : DFT Hessian,TD-DFT gradient, ASA, ECA, R-Raman, ABS, FL, XAS/XES, NRVS
   Peter Pinski           : DLPNO-MP2, DLPNO-MP2 Gradient
   Christoph Reimann      : Effective Core Potentials
   Marius Retegan         : Local ZFS, SOC
   Christoph Riplinger    : Optimizer, TS searches, QM/MM, DLPNO-CCSD(T), (RO)-DLPNO pert. Triples
   Tobias Risthaus        : Range-separated hybrids, TD-DFT gradient, RPA, STAB
   Michael Roemelt        : Original ROCIS implementation
   Masaaki Saitow         : Open-shell DLPNO-CCSD energy and density
   Barbara Sandhoefer     : DKH picture change effects
   Avijit Sen             : IP-ROCIS
   Kantharuban Sivalingam : CASSCF convergence, NEVPT2, FIC-MRCI
   Bernardo de Souza      : ESD, SOC TD-DFT
   Georgi Stoychev        : AutoAux, RI-MP2 NMR
   Willem Van den Heuvel  : Paramagnetic NMR
   Boris Wezisla          : Elementary symmetry handling
   Frank Wennmohs         : Technical directorship


 We gratefully acknowledge several colleagues who have allowed us to
 interface, adapt or use parts of their codes:
   Stefan Grimme, W. Hujo, H. Kruse,             : VdW corrections, initial TS optimization,
                  C. Bannwarth                     DFT functionals, gCP, sTDA/sTD-DF
   Ed Valeev, F. Pavosevic, A. Kumar             : LibInt (2-el integral package), F12 methods
   Garnet Chan, S. Sharma, J. Yang, R. Olivares  : DMRG
   Ulf Ekstrom                                   : XCFun DFT Library
   Mihaly Kallay                                 : mrcc  (arbitrary order and MRCC methods)
   Andreas Klamt, Michael Diedenhofen            : otool_cosmo (COSMO solvation model)
   Jiri Pittner, Ondrej Demel                    : Mk-CCSD
   Frank Weinhold                                : gennbo (NPA and NBO analysis)
   Christopher J. Cramer and Donald G. Truhlar   : smd solvation model
   Lars Goerigk                                  : TD-DFT with DH, B97 family of functionals
   V. Asgeirsson, H. Jonsson                     : NEB implementation
   FAccTs GmbH                                   : IRC, NEB, NEB-TS, Multilevel, MM, QM/MM, CI optimization
   S Lehtola, MJT Oliveira, MAL Marques          : LibXC Library


 Your calculation uses the libint2 library for the computation of 2-el integrals
 For citations please refer to: http://libint.valeyev.net

 Your ORCA version has been built with support for libXC version: 4.2.3
 For citations please refer to: https://tddft.org/programs/libxc/

 This ORCA versions uses:
   CBLAS   interface :  Fast vector & matrix operations
   LAPACKE interface :  Fast linear algebra routines
   SCALAPACK package :  Parallel linear algebra routines


----- Orbital basis set information -----
Your calculation utilizes the basis: pc-3
   H, C-F              : F. Jensen, J. Chem. Phys. 115, 9113 (2001).
                         F. Jensen, J. Chem. Phys. 116, 7372 (2002).
                         F. Jensen, J. Chem. Phys. 117, 9234 (2002).
   Si-Cl               : F. Jensen, T. Helgaker, J. Chem. Phys. 121, 3463 (2004).
   He-B, Ne-Mg, Al, Ar : F. Jensen, J. Phys. Chem. A 111, 11198 (2007).
   K, Ca, Ga-Kr        : F. Jensen, J. Chem. Phys. 136, 094110 (2012).
   Sc-Zn               : F. Jensen, J. Chem. Phys. 138, 014107 (2013).

================================================================================
                                        WARNINGS
                       Please study these warnings very carefully!
================================================================================


INFO   : the flag for use of LIBINT has been found!

================================================================================
                                       INPUT FILE
================================================================================
NAME = Ne_pc-3_2192.575824_.inp
|  1> ! LDA pc-3 nori grid5 finalgrid6 verytightscf
|  2> %Pal NProcs 18 End
|  3> 
|  4> % REL
|  5>   Method ZORA
|  6>   ModelPot 1, 0, 0, 0
|  7>   velit 2192.575824
|  8> END
|  9> 
| 10> *xyz 8 1
| 11> Ne 0.0 0.0 0.0
| 12> **                         ****END OF INPUT****
================================================================================

                       ****************************
                       * Single Point Calculation *
                       ****************************

---------------------------------
CARTESIAN COORDINATES (ANGSTROEM)
---------------------------------
  Ne     0.000000    0.000000    0.000000

----------------------------
CARTESIAN COORDINATES (A.U.)
----------------------------
  NO LB      ZA    FRAG     MASS         X           Y           Z
   0 Ne   10.0000    0    20.179    0.000000    0.000000    0.000000

--------------------------------
INTERNAL COORDINATES (ANGSTROEM)
--------------------------------
 Ne     0   0   0     0.000000000000     0.00000000     0.00000000

---------------------------
INTERNAL COORDINATES (A.U.)
---------------------------
 Ne     0   0   0     0.000000000000     0.00000000     0.00000000

---------------------
BASIS SET INFORMATION
---------------------
There are 1 groups of distinct atoms

 Group   1 Type Ne  : 21s9p4d2f1g contracted to 6s5p4d2f1g pattern {981111/51111/1111/11/1}

Atom   0Ne   basis set group =>   1


           ************************************************************
           *        Program running with 18 parallel MPI-processes    *
           *              working on a common directory               *
           ************************************************************
------------------------------------------------------------------------------
                           ORCA GTO INTEGRAL CALCULATION
------------------------------------------------------------------------------

                         BASIS SET STATISTICS AND STARTUP INFO

 # of primitive gaussian shells          ...   37
 # of primitive gaussian functions       ...   91
 # of contracted shells                  ...   18
 # of contracted basis functions         ...   64
 Highest angular momentum                ...    4
 Maximum contraction depth               ...    9
 Integral package used                   ... LIBINT
 Integral threshhold            Thresh   ...  1.000e-12
 Primitive cut-off              TCut     ...  1.000e-14


------------------------------ INTEGRAL EVALUATION ----------------------------


 * One electron integrals 
 Pre-screening matrix                    ... done
 Shell pair data                         ... done (   0.000 sec)



           ************************************************************
           *        Program running with 18 parallel MPI-processes    *
           *              working on a common directory               *
           ************************************************************
------------------------------------------------------------------------------
                          ORCA RELATIVISTIC HAMILTONIAN
------------------------------------------------------------------------------

Relativistic Method            ... ZORA(MP)
Treatment of potential         ... Van Wuellen
Nucleus model                  ... Point Nucleus
Speed of light used            ... 2192.57582400000001


            *************************************************
            *         ZERO ORDER REGULAR APPROXIMATION      *
            *                     ZORA(MP)                  *
            *            Programmed by FN according to      *
            *                   C. van Wuellen              *
            *       J. Chem. Phys. (1998) vol 109, 392-399  *
            *************************************************

Terms included in model potential: +V(e,N)
Basis function cutoff value   ... 1.000000e-12
Loading the fitted atomic densities  (DKH4)  ... done
Calculating the cutoffs                      ... done
Number of fit functions                      ... 11
Setting up the integration grid ... done


           ************************************************************
           *        Program running with 18 parallel MPI-processes    *
           *              working on a common directory               *
           ************************************************************
-------------------------------------------------------------------------------
                                 ORCA SCF
-------------------------------------------------------------------------------

------------
SCF SETTINGS
------------
Hamiltonian:
 Density Functional     Method          .... DFT(GTOs)
 Exchange Functional    Exchange        .... Slater
   X-Alpha parameter    XAlpha          ....  0.666667
 Correlation Functional Correlation     .... VWN-5
 Gradients option       PostSCFGGA      .... off
   Density functional embedding theory  .... OFF

Relativistic Settings:
 Scalar relativistic method             .... ZORA
 Speed of light used       Velit        ....       2192.57582
Orbital energies will be scaled


General Settings:
 Integral files         IntName         .... Ne_pc-3_2192.575824_
 Hartree-Fock type      HFTyp           .... RHF
 Total Charge           Charge          ....    8
 Multiplicity           Mult            ....    1
 Number of Electrons    NEL             ....    2
 Basis Dimension        Dim             ....   64
 Nuclear Repulsion      ENuc            ....      0.0000000000 Eh

Convergence Acceleration:
 DIIS                   CNVDIIS         .... on
   Start iteration      DIISMaxIt       ....    12
   Startup error        DIISStart       ....  0.200000
   # of expansion vecs  DIISMaxEq       ....     5
   Bias factor          DIISBfac        ....   1.050
   Max. coefficient     DIISMaxC        ....  10.000
 Newton-Raphson         CNVNR           .... off
 SOSCF                  CNVSOSCF        .... on
   Start iteration      SOSCFMaxIt      ....   150
   Startup grad/error   SOSCFStart      ....  0.003300
 Level Shifting         CNVShift        .... on
   Level shift para.    LevelShift      ....    0.2500
   Turn off err/grad.   ShiftErr        ....    0.0010
 Zerner damping         CNVZerner       .... off
 Static damping         CNVDamp         .... on
   Fraction old density DampFac         ....    0.7000
   Max. Damping (<1)    DampMax         ....    0.9800
   Min. Damping (>=0)   DampMin         ....    0.0000
   Turn off err/grad.   DampErr         ....    0.1000
 Fernandez-Rico         CNVRico         .... off

SCF Procedure:
 Maximum # iterations   MaxIter         ....   125
 SCF integral mode      SCFMode         .... Direct
   Integral package                     .... LIBINT
 Reset frequency        DirectResetFreq ....    20
 Integral Threshold     Thresh          ....  1.000e-12 Eh
 Primitive CutOff       TCut            ....  1.000e-14 Eh

Convergence Tolerance:
 Convergence Check Mode ConvCheckMode   .... Total+1el-Energy
 Convergence forced     ConvForced      .... 0
 Energy Change          TolE            ....  1.000e-09 Eh
 1-El. energy change                    ....  1.000e-06 Eh
 Orbital Gradient       TolG            ....  2.000e-06
 Orbital Rotation angle TolX            ....  2.000e-06
 DIIS Error             TolErr          ....  1.000e-08


Diagonalization of the overlap matrix:
Smallest eigenvalue                        ... 8.016e-03
Time for diagonalization                   ...    0.001 sec
Threshold for overlap eigenvalues          ... 1.000e-08
Number of eigenvalues below threshold      ... 0
Time for construction of square roots      ...    0.001 sec
Total time needed                          ...    0.002 sec

-------------------
DFT GRID GENERATION
-------------------

General Integration Accuracy     IntAcc      ...  5.010
Radial Grid Type                 RadialGrid  ... Gauss-Chebyshev
Angular Grid (max. acc.)         AngularGrid ... Lebedev-434
Angular grid pruning method      GridPruning ... 3 (G Style)
Weight generation scheme         WeightScheme... Becke
Basis function cutoff            BFCut       ...    1.0000e-12
Integration weight cutoff        WCut        ...    1.0000e-14
Grids for H and He will be reduced by one unit

# of grid points (after initial pruning)     ...  10818 (   0.0 sec)
# of grid points (after weights+screening)   ...  10818 (   0.0 sec)
Grid point division into batches done        ...    0.1 sec
Reduced shell lists constructed in    0.1 sec

Total number of grid points                  ...    10818
Total number of batches                      ...      170
Average number of points per batch           ...       63
Average number of grid points per atom       ...    10818
Average number of shells per batch           ...     0.36 ( 2.02%)
Average number of basis functions per batch  ...     1.09 ( 1.70%)
Average number of large shells per batch     ...     0.36 (100.00%)
Average number of large basis fcns per batch ...     1.09 (100.00%)
Maximum spatial batch extension              ...  16.29, 16.29, 16.29 au
Average spatial batch extension              ...   0.85,  0.86,  0.85 au

Time for grid setup =    0.122 sec

------------------------------
INITIAL GUESS: MODEL POTENTIAL
------------------------------
Loading ZORA relativistic densities                ... done
Calculating cut-offs                               ... done
Setting up the integral package                    ... done
Initializing the effective Hamiltonian             ... done
Starting the Coulomb interaction                   ... done (   0.0 sec)
Reading the grid                                   ... done
Mapping shells                                     ... done
Starting the XC term evaluation                    ... done (   0.0 sec)
  promolecular density results
     # of electrons  =     10.000000334
     EX              =    -11.053709298
     EC              =     -0.746638772
     EX+EC           =    -11.800348070
Transforming the Hamiltonian                       ... done (   0.0 sec)
Diagonalizing the Hamiltonian                      ... done (   0.0 sec)
Back transforming the eigenvectors                 ... done (   0.0 sec)
Now organizing SCF variables                       ... done
                      ------------------
                      INITIAL GUESS DONE (   0.2 sec)
                      ------------------
--------------
SCF ITERATIONS
--------------
ITER       Energy         Delta-E        Max-DP      RMS-DP      [F,P]     Damp
               ***  Starting incremental Fock matrix formation  ***
  0    -93.2009806418   0.000000000000 0.00693330  0.00017964  0.8731253 0.7000
  1    -93.2048551015  -0.003874459718 0.00485748  0.00012545  0.6011879 0.7000
  2    -93.2075105264  -0.002655424921 0.00337120  0.00008685  0.4127666 0.7000
  3    -93.2093427822  -0.001832255742 0.00233990  0.00006015  0.2834367 0.7000
                               ***Turning on DIIS***
  4    -93.2106129739  -0.001270191678 0.00162435  0.00004168  0.1946565 0.7000
  5    -93.2114963248  -0.000883350911 0.00111453  0.00002850  0.1337016 0.7000
  6    -93.2121119642  -0.000615639401 0.00258329  0.00006602  0.0930124 0.0000
                      *** Initiating the SOSCF procedure ***
                           *** Shutting down DIIS ***
                      *** Re-Reading the Fockian *** 
                      *** Removing any level shift *** 
ITER      Energy       Delta-E        Grad      Rot      Max-DP    RMS-DP
  7    -93.21354058  -0.0014286154  0.000287  0.000287  0.000017  0.000000
               *** Restarting incremental Fock matrix formation ***
  8    -93.21354058  -0.0000000036  0.000005  0.000000  0.000000  0.000000
                 **** Energy Check signals convergence ****
              ***Rediagonalizing the Fockian in SOSCF/NRSCF***

               *****************************************************
               *                     SUCCESS                       *
               *           SCF CONVERGED AFTER   9 CYCLES          *
               *****************************************************

Setting up the final grid:

General Integration Accuracy     IntAcc      ...  5.340
Radial Grid Type                 RadialGrid  ... Gauss-Chebyshev
Angular Grid (max. acc.)         AngularGrid ... Lebedev-590
Angular grid pruning method      GridPruning ... 3 (G Style)
Weight generation scheme         WeightScheme... Becke
Basis function cutoff            BFCut       ...    1.0000e-12
Integration weight cutoff        WCut        ...    1.0000e-14
Grids for H and He will be reduced by one unit

# of grid points (after initial pruning)     ...  16840 (   0.0 sec)
# of grid points (after weights+screening)   ...  16840 (   0.0 sec)
Grid point division into batches done        ...    0.2 sec
Reduced shell lists constructed in    0.2 sec

Total number of grid points                  ...    16840
Total number of batches                      ...      264
Average number of points per batch           ...       63
Average number of grid points per atom       ...    16840
Average number of shells per batch           ...     0.00 ( 0.00%)
Average number of basis functions per batch  ...     0.00 ( 0.00%)
Average number of large shells per batch     ...     0.00 ( -nan%)
Average number of large basis fcns per batch ...     0.00 ( -nan%)
Maximum spatial batch extension              ...  16.63, 16.63, 16.63 au
Average spatial batch extension              ...   0.74,  0.74,  0.69 au

Final grid set up in    0.2 sec
Final integration                            ... done (   0.0 sec)
Change in XC energy                          ...     0.000000130
Integrated number of electrons               ...     1.999999996
Previous integrated no of electrons          ...     2.000000016

----------------
TOTAL SCF ENERGY
----------------

Total Energy       :          -93.21354045 Eh           -2536.46939 eV

Components:
Nuclear Repulsion  :            0.00000000 Eh               0.00000 eV
Electronic Energy  :          -93.21354045 Eh           -2536.46939 eV
One Electron Energy:          -99.85234814 Eh           -2717.12053 eV
Two Electron Energy:            6.63880769 Eh             180.65114 eV

Virial components:
Potential Energy   :         -186.28658628 Eh           -5069.11572 eV
Kinetic Energy     :           93.07304583 Eh            2532.64633 eV
Virial Ratio       :            2.00150951


DFT components:
N(Alpha)           :        0.999999997849 electrons
N(Beta)            :        0.999999997849 electrons
N(Total)           :        1.999999995697 electrons
E(X)               :       -5.145374046334 Eh       
E(C)               :       -0.202671609331 Eh       
E(XC)              :       -5.348045655666 Eh       
DFET-embed. en.    :        0.000000000000 Eh       

---------------
SCF CONVERGENCE
---------------

  Last Energy change         ...   -1.1084e-12  Tolerance :   1.0000e-09
  Last MAX-Density change    ...    1.5885e-08  Tolerance :   1.0000e-08
  Last RMS-Density change    ...    3.0170e-10  Tolerance :   1.0000e-09
  Last Orbital Gradient      ...    2.8181e-07  Tolerance :   2.0000e-06
  Last Orbital Rotation      ...    3.6403e-09  Tolerance :   2.0000e-06

             **** THE GBW FILE WAS UPDATED (Ne_pc-3_2192.575824_.gbw) ****
             **** DENSITY FILE WAS UPDATED (Ne_pc-3_2192.575824_.scfp) ****
             **** ENERGY FILE WAS UPDATED (Ne_pc-3_2192.575824_.en.tmp) ****
             **** THE GBW FILE WAS UPDATED (Ne_pc-3_2192.575824_.gbw) ****
             **** DENSITY FILE WAS UPDATED (Ne_pc-3_2192.575824_.scfp) ****
----------------
ORBITAL ENERGIES
----------------

  NO   OCC          E(Eh)            E(eV) 
   0   2.0000     -41.480112     -1128.7312 
   1   0.0000      -9.049638      -246.2532 
   2   0.0000      -8.613545      -234.3865 
   3   0.0000      -8.613545      -234.3865 
   4   0.0000      -8.613545      -234.3865 
   5   0.0000      -3.830915      -104.2445 
   6   0.0000      -3.701852      -100.7325 
   7   0.0000      -3.701852      -100.7325 
   8   0.0000      -3.701852      -100.7325 
   9   0.0000      -3.598060       -97.9082 
  10   0.0000      -3.598060       -97.9082 
  11   0.0000      -3.598060       -97.9082 
  12   0.0000      -3.598060       -97.9082 
  13   0.0000      -3.598060       -97.9082 
  14   0.0000      -2.045973       -55.6738 
  15   0.0000      -2.045973       -55.6738 
  16   0.0000      -2.045973       -55.6738 
  17   0.0000      -1.833921       -49.9035 
  18   0.0000      -1.822256       -49.5861 
  19   0.0000      -1.822256       -49.5861 
  20   0.0000      -1.822256       -49.5861 
  21   0.0000      -1.822256       -49.5861 
  22   0.0000      -1.822256       -49.5861 
  23   0.0000      -1.101743       -29.9799 
  24   0.0000      -1.101743       -29.9799 
  25   0.0000      -1.101743       -29.9799 
  26   0.0000      -1.101743       -29.9799 
  27   0.0000      -1.101743       -29.9799 
  28   0.0000      -1.101743       -29.9799 
  29   0.0000      -1.101743       -29.9799 
  30   0.0000      -0.965434       -26.2708 
  31   0.0000      -0.965434       -26.2708 
  32   0.0000      -0.965434       -26.2708 
  33   0.0000       2.461032        66.9681 
  34   0.0000       2.461032        66.9681 
  35   0.0000       2.461032        66.9681 
  36   0.0000       2.461032        66.9681 
  37   0.0000       2.461032        66.9681 
  38   0.0000       2.919628        79.4471 
  39   0.0000       2.919628        79.4471 
  40   0.0000       2.919628        79.4471 
  41   0.0000       2.919628        79.4471 
  42   0.0000       2.919628        79.4471 
  43   0.0000       2.919628        79.4471 
  44   0.0000       2.919628        79.4471 
  45   0.0000       2.919628        79.4471 
  46   0.0000       2.919628        79.4471 
  47   0.0000       5.195918       141.3881 
  48   0.0000       5.276936       143.5927 
  49   0.0000       5.276936       143.5927 
  50   0.0000       5.276936       143.5927 
  51   0.0000       5.276936       143.5927 
  52   0.0000       5.276936       143.5927 
  53   0.0000       5.276936       143.5927 
  54   0.0000       5.276936       143.5927 
  55   0.0000       5.783659       157.3814 
  56   0.0000       5.783659       157.3814 
  57   0.0000       5.783659       157.3814 
  58   0.0000      21.563999       586.7862 
  59   0.0000      21.563999       586.7862 
  60   0.0000      21.563999       586.7862 
  61   0.0000      21.563999       586.7862 
  62   0.0000      21.563999       586.7862 
  63   0.0000      77.703248      2114.4129 

                    ********************************
                    * MULLIKEN POPULATION ANALYSIS *
                    ********************************

-----------------------
MULLIKEN ATOMIC CHARGES
-----------------------
   0 Ne:    8.000000
Sum of atomic charges:    8.0000000

--------------------------------
MULLIKEN REDUCED ORBITAL CHARGES
--------------------------------
  0 Nes       :     2.000000  s :     2.000000
      pz      :     0.000000  p :     0.000000
      px      :     0.000000
      py      :     0.000000
      dz2     :     0.000000  d :     0.000000
      dxz     :     0.000000
      dyz     :     0.000000
      dx2y2   :     0.000000
      dxy     :     0.000000
      f0      :     0.000000  f :     0.000000
      f+1     :     0.000000
      f-1     :     0.000000
      f+2     :     0.000000
      f-2     :     0.000000
      f+3     :     0.000000
      f-3     :     0.000000
      g0      :     0.000000  g :     0.000000
      g+1     :     0.000000
      g-1     :     0.000000
      g+2     :     0.000000
      g-2     :     0.000000
      g+3     :     0.000000
      g-3     :     0.000000
      g+4     :     0.000000
      g-4     :     0.000000


                     *******************************
                     * LOEWDIN POPULATION ANALYSIS *
                     *******************************

----------------------
LOEWDIN ATOMIC CHARGES
----------------------
   0 Ne:    8.000000

-------------------------------
LOEWDIN REDUCED ORBITAL CHARGES
-------------------------------
  0 Nes       :     2.000000  s :     2.000000
      pz      :     0.000000  p :     0.000000
      px      :     0.000000
      py      :     0.000000
      dz2     :     0.000000  d :     0.000000
      dxz     :     0.000000
      dyz     :     0.000000
      dx2y2   :     0.000000
      dxy     :     0.000000
      f0      :     0.000000  f :     0.000000
      f+1     :     0.000000
      f-1     :     0.000000
      f+2     :     0.000000
      f-2     :     0.000000
      f+3     :     0.000000
      f-3     :     0.000000
      g0      :     0.000000  g :     0.000000
      g+1     :     0.000000
      g-1     :     0.000000
      g+2     :     0.000000
      g-2     :     0.000000
      g+3     :     0.000000
      g-3     :     0.000000
      g+4     :     0.000000
      g-4     :     0.000000


                      *****************************
                      * MAYER POPULATION ANALYSIS *
                      *****************************

  NA   - Mulliken gross atomic population
  ZA   - Total nuclear charge
  QA   - Mulliken gross atomic charge
  VA   - Mayer's total valence
  BVA  - Mayer's bonded valence
  FA   - Mayer's free valence

  ATOM       NA         ZA         QA         VA         BVA        FA
  0 Ne     2.0000    10.0000     8.0000     0.0000     0.0000     0.0000

  Mayer bond orders larger than 0.100000


--------------------------
ATOM BASIS FOR ELEMENT Ne
--------------------------
 NewGTO Ne
 S 21
    1     270660.000000000000         0.000024927335
    2      40541.000000000000         0.000193539308
    3       9226.500000000000         0.001017151253
    4       2613.200000000000         0.004256744898
    5        852.390000000000         0.015182776761
    6        307.610000000000         0.046227057719
    7        119.760000000000         0.117215468124
    8         49.437000000000         0.216116894260
    9         21.369000000000         0.233175070517
   10       9226.500000000000         0.000000428165
   11       2613.200000000000         0.000018149672
   12        852.390000000000         0.000123569279
   13        307.610000000000         0.001290719893
   14        119.760000000000         0.007795836910
   15         49.437000000000         0.043800512042
   16         21.369000000000         0.142083812608
   17          9.392100000000         0.284651016106
   18          3.983200000000         0.035941007651
   19          1.688700000000         0.003465711567
   20          0.680300000000        -0.002102636098
   21          0.260240000000         0.000639324435
 S 21
    1     270660.000000000000         0.000008088048
    2      40541.000000000000         0.000062796730
    3       9226.500000000000         0.000330029974
    4       2613.200000000000         0.001381164702
    5        852.390000000000         0.004926279552
    6        307.610000000000         0.014999061947
    7        119.760000000000         0.038032316013
    8         49.437000000000         0.070122366526
    9         21.369000000000         0.075657147561
   10       9226.500000000000         0.000000347958
   11       2613.200000000000         0.000014749736
   12        852.390000000000         0.000100421328
   13        307.610000000000         0.001048932283
   14        119.760000000000         0.006335460585
   15         49.437000000000         0.035595462146
   16         21.369000000000         0.115467576463
   17          9.392100000000         0.231327991304
   18          3.983200000000        -0.236790315588
   19          1.688700000000        -0.786119240480
   20          0.680300000000        -0.185675771330
   21          0.260240000000         0.010804280065
 S 21
    1     270660.000000000000        -0.000004242590
    2      40541.000000000000        -0.000032940058
    3       9226.500000000000        -0.000173117395
    4       2613.200000000000        -0.000724490665
    5        852.390000000000        -0.002584082508
    6        307.610000000000        -0.007867765768
    7        119.760000000000        -0.019949871203
    8         49.437000000000        -0.036782723938
    9         21.369000000000        -0.039685996217
   10       9226.500000000000        -0.000000203524
   11       2613.200000000000        -0.000008627266
   12        852.390000000000        -0.000058737423
   13        307.610000000000        -0.000613530817
   14        119.760000000000        -0.003705673255
   15         49.437000000000        -0.020820136171
   16         21.369000000000        -0.067538122006
   17          9.392100000000        -0.135306019046
   18          3.983200000000         0.139046580935
   19          1.688700000000         1.151037729332
   20          0.680300000000        -0.762420655039
   21          0.260240000000        -0.781316344077
 S 21
    1     270660.000000000000        -0.000004338797
    2      40541.000000000000        -0.000033687022
    3       9226.500000000000        -0.000177043087
    4       2613.200000000000        -0.000740919557
    5        852.390000000000        -0.002642680383
    6        307.610000000000        -0.008046178937
    7        119.760000000000        -0.020402263897
    8         49.437000000000        -0.037616826343
    9         21.369000000000        -0.040585934595
   10       9226.500000000000        -0.000000174248
   11       2613.200000000000        -0.000007386281
   12        852.390000000000        -0.000050288370
   13        307.610000000000        -0.000525277805
   14        119.760000000000        -0.003172632666
   15         49.437000000000        -0.017825274809
   16         21.369000000000        -0.057823136935
   17          9.392100000000        -0.115842997037
   18          3.983200000000        -0.055947690932
   19          1.688700000000         2.332741477216
   20          0.680300000000        -4.025238230608
   21          0.260240000000         2.323056764457
 S 21
    1     270660.000000000000        -0.000005868595
    2      40541.000000000000        -0.000045564590
    3       9226.500000000000        -0.000239465980
    4       2613.200000000000        -0.001002157334
    5        852.390000000000        -0.003574452179
    6        307.610000000000        -0.010883148043
    7        119.760000000000        -0.027595814127
    8         49.437000000000        -0.050879988275
    9         21.369000000000        -0.054895962181
   10       9226.500000000000        -0.000001077961
   11       2613.200000000000        -0.000045694163
   12        852.390000000000        -0.000311101748
   13        307.610000000000        -0.003249555373
   14        119.760000000000        -0.019627034376
   15         49.437000000000        -0.110273491533
   16         21.369000000000        -0.357714496392
   17          9.392100000000        -0.716645992282
   18          3.983200000000         4.560596191840
   19          1.688700000000        -5.909327004804
   20          0.680300000000         3.664873618792
   21          0.260240000000        -1.117409798914
 S 21
    1     270660.000000000000         0.000112233486
    2      40541.000000000000         0.000871396448
    3       9226.500000000000         0.004579648434
    4       2613.200000000000         0.019165679683
    5        852.390000000000         0.068359331621
    6        307.610000000000         0.208133915037
    7        119.760000000000         0.527753992732
    8         49.437000000000         0.973050363302
    9         21.369000000000         1.049853542713
   10       9226.500000000000        -0.000004093885
   11       2613.200000000000        -0.000173537427
   12        852.390000000000        -0.001181503128
   13        307.610000000000        -0.012341170872
   14        119.760000000000        -0.074539608391
   15         49.437000000000        -0.418796987735
   16         21.369000000000        -1.358529157596
   17          9.392100000000        -2.721680239435
   18          3.983200000000         4.175659798292
   19          1.688700000000        -3.171562763726
   20          0.680300000000         1.540418628716
   21          0.260240000000        -0.432147703509
 P 9
    1        443.450000000000         0.001037091113
    2        104.820000000000         0.008714540547
    3         33.255000000000         0.045043312129
    4         12.548000000000         0.146732459286
    5          5.142100000000         0.361667968892
    6          2.178300000000         0.478856544438
    7          0.906450000000         0.131523805719
    8          0.359940000000        -0.001809718220
    9          0.135150000000         0.000485746679
 P 9
    1        443.450000000000         0.000652354820
    2        104.820000000000         0.005481651958
    3         33.255000000000         0.028333307853
    4         12.548000000000         0.092298184668
    5          5.142100000000         0.227497699853
    6          2.178300000000         0.367388867111
    7          0.906450000000        -0.568560355403
    8          0.359940000000        -0.659328981713
    9          0.135150000000         0.017798831807
 P 9
    1        443.450000000000         0.000432775179
    2        104.820000000000         0.003636553044
    3         33.255000000000         0.018796446349
    4         12.548000000000         0.061231038931
    5          5.142100000000         0.150923017244
    6          2.178300000000         0.308826549017
    7          0.906450000000        -0.882846347679
    8          0.359940000000        -0.066867084425
    9          0.135150000000         1.084222810833
 P 9
    1        443.450000000000        -0.000603517335
    2        104.820000000000        -0.005071276981
    3         33.255000000000        -0.026212180748
    4         12.548000000000        -0.085388430880
    5          5.142100000000        -0.210466453798
    6          2.178300000000        -0.613025769298
    7          0.906450000000         2.396383374817
    8          0.359940000000        -2.795316762116
    9          0.135150000000         1.440388620355
 P 9
    1        443.450000000000         0.003012215624
    2        104.820000000000         0.025311252664
    3         33.255000000000         0.130827626307
    4         12.548000000000         0.426182233123
    5          5.142100000000         1.050459205693
    6          2.178300000000        -2.878038353346
    7          0.906450000000         2.636123579236
    8          0.359940000000        -1.404317558840
    9          0.135150000000         0.442019003262
 D 4
    1         10.000000000000         0.033389354711
    2          3.000000000000         0.186157907710
    3          1.150000000000         0.599506868581
    4          0.400000000000         0.366164107973
 D 4
    1         10.000000000000         0.040178301816
    2          3.000000000000         0.193403957366
    3          1.150000000000         0.801249268845
    4          0.400000000000        -1.166810264064
 D 4
    1         10.000000000000         0.041317896946
    2          3.000000000000         1.393379741176
    3          1.150000000000        -1.534954968533
    4          0.400000000000         0.643045418263
 D 4
    1         10.000000000000         1.278959149532
    2          3.000000000000        -1.167415324830
    3          1.150000000000         0.680796940714
    4          0.400000000000        -0.221573567676
 F 2
    1          2.800000000000        -0.032762777462
    2          1.150000000000         1.020971315189
 F 2
    1          2.800000000000         1.314854211242
    2          1.150000000000        -0.829175837787
 G 1
    1          1.800000000000         1.000000000000
 end
  // -----------------------------------------------
  // The basis set
  // -----------------------------------------------
  BAS[ATNO] = new BFNGauss[NSH];
  // Basis function   1 L = s
  InitBFNGauss(BAS[ATNO][  0]);
  BAS[ATNO][  0].l  = 0;
  BAS[ATNO][  0].ng = 21;
  BAS[ATNO][  0].a[  0] =    270660.000000000000;     BAS[ATNO][  0].d[  0] =         0.000024927335;
  BAS[ATNO][  0].a[  1] =     40541.000000000000;     BAS[ATNO][  0].d[  1] =         0.000193539308;
  BAS[ATNO][  0].a[  2] =      9226.500000000000;     BAS[ATNO][  0].d[  2] =         0.001017151253;
  BAS[ATNO][  0].a[  3] =      2613.200000000000;     BAS[ATNO][  0].d[  3] =         0.004256744898;
  BAS[ATNO][  0].a[  4] =       852.390000000000;     BAS[ATNO][  0].d[  4] =         0.015182776761;
  BAS[ATNO][  0].a[  5] =       307.610000000000;     BAS[ATNO][  0].d[  5] =         0.046227057719;
  BAS[ATNO][  0].a[  6] =       119.760000000000;     BAS[ATNO][  0].d[  6] =         0.117215468124;
  BAS[ATNO][  0].a[  7] =        49.437000000000;     BAS[ATNO][  0].d[  7] =         0.216116894260;
  BAS[ATNO][  0].a[  8] =        21.369000000000;     BAS[ATNO][  0].d[  8] =         0.233175070517;
  BAS[ATNO][  0].a[  9] =      9226.500000000000;     BAS[ATNO][  0].d[  9] =         0.000000428165;
  BAS[ATNO][  0].a[ 10] =      2613.200000000000;     BAS[ATNO][  0].d[ 10] =         0.000018149672;
  BAS[ATNO][  0].a[ 11] =       852.390000000000;     BAS[ATNO][  0].d[ 11] =         0.000123569279;
  BAS[ATNO][  0].a[ 12] =       307.610000000000;     BAS[ATNO][  0].d[ 12] =         0.001290719893;
  BAS[ATNO][  0].a[ 13] =       119.760000000000;     BAS[ATNO][  0].d[ 13] =         0.007795836910;
  BAS[ATNO][  0].a[ 14] =        49.437000000000;     BAS[ATNO][  0].d[ 14] =         0.043800512042;
  BAS[ATNO][  0].a[ 15] =        21.369000000000;     BAS[ATNO][  0].d[ 15] =         0.142083812608;
  BAS[ATNO][  0].a[ 16] =         9.392100000000;     BAS[ATNO][  0].d[ 16] =         0.284651016106;
  BAS[ATNO][  0].a[ 17] =         3.983200000000;     BAS[ATNO][  0].d[ 17] =         0.035941007651;
  BAS[ATNO][  0].a[ 18] =         1.688700000000;     BAS[ATNO][  0].d[ 18] =         0.003465711567;
  BAS[ATNO][  0].a[ 19] =         0.680300000000;     BAS[ATNO][  0].d[ 19] =        -0.002102636098;
  BAS[ATNO][  0].a[ 20] =         0.260240000000;     BAS[ATNO][  0].d[ 20] =         0.000639324435;

  // Basis function   2 L = s
  InitBFNGauss(BAS[ATNO][  1]);
  BAS[ATNO][  1].l  = 0;
  BAS[ATNO][  1].ng = 21;
  BAS[ATNO][  1].a[  0] =    270660.000000000000;     BAS[ATNO][  1].d[  0] =        -0.000008088048;
  BAS[ATNO][  1].a[  1] =     40541.000000000000;     BAS[ATNO][  1].d[  1] =        -0.000062796730;
  BAS[ATNO][  1].a[  2] =      9226.500000000000;     BAS[ATNO][  1].d[  2] =        -0.000330029974;
  BAS[ATNO][  1].a[  3] =      2613.200000000000;     BAS[ATNO][  1].d[  3] =        -0.001381164702;
  BAS[ATNO][  1].a[  4] =       852.390000000000;     BAS[ATNO][  1].d[  4] =        -0.004926279552;
  BAS[ATNO][  1].a[  5] =       307.610000000000;     BAS[ATNO][  1].d[  5] =        -0.014999061947;
  BAS[ATNO][  1].a[  6] =       119.760000000000;     BAS[ATNO][  1].d[  6] =        -0.038032316013;
  BAS[ATNO][  1].a[  7] =        49.437000000000;     BAS[ATNO][  1].d[  7] =        -0.070122366526;
  BAS[ATNO][  1].a[  8] =        21.369000000000;     BAS[ATNO][  1].d[  8] =        -0.075657147561;
  BAS[ATNO][  1].a[  9] =      9226.500000000000;     BAS[ATNO][  1].d[  9] =        -0.000000347958;
  BAS[ATNO][  1].a[ 10] =      2613.200000000000;     BAS[ATNO][  1].d[ 10] =        -0.000014749736;
  BAS[ATNO][  1].a[ 11] =       852.390000000000;     BAS[ATNO][  1].d[ 11] =        -0.000100421328;
  BAS[ATNO][  1].a[ 12] =       307.610000000000;     BAS[ATNO][  1].d[ 12] =        -0.001048932283;
  BAS[ATNO][  1].a[ 13] =       119.760000000000;     BAS[ATNO][  1].d[ 13] =        -0.006335460585;
  BAS[ATNO][  1].a[ 14] =        49.437000000000;     BAS[ATNO][  1].d[ 14] =        -0.035595462146;
  BAS[ATNO][  1].a[ 15] =        21.369000000000;     BAS[ATNO][  1].d[ 15] =        -0.115467576463;
  BAS[ATNO][  1].a[ 16] =         9.392100000000;     BAS[ATNO][  1].d[ 16] =        -0.231327991304;
  BAS[ATNO][  1].a[ 17] =         3.983200000000;     BAS[ATNO][  1].d[ 17] =         0.236790315588;
  BAS[ATNO][  1].a[ 18] =         1.688700000000;     BAS[ATNO][  1].d[ 18] =         0.786119240480;
  BAS[ATNO][  1].a[ 19] =         0.680300000000;     BAS[ATNO][  1].d[ 19] =         0.185675771330;
  BAS[ATNO][  1].a[ 20] =         0.260240000000;     BAS[ATNO][  1].d[ 20] =        -0.010804280065;

  // Basis function   3 L = s
  InitBFNGauss(BAS[ATNO][  2]);
  BAS[ATNO][  2].l  = 0;
  BAS[ATNO][  2].ng = 21;
  BAS[ATNO][  2].a[  0] =    270660.000000000000;     BAS[ATNO][  2].d[  0] =        -0.000004242590;
  BAS[ATNO][  2].a[  1] =     40541.000000000000;     BAS[ATNO][  2].d[  1] =        -0.000032940058;
  BAS[ATNO][  2].a[  2] =      9226.500000000000;     BAS[ATNO][  2].d[  2] =        -0.000173117395;
  BAS[ATNO][  2].a[  3] =      2613.200000000000;     BAS[ATNO][  2].d[  3] =        -0.000724490665;
  BAS[ATNO][  2].a[  4] =       852.390000000000;     BAS[ATNO][  2].d[  4] =        -0.002584082508;
  BAS[ATNO][  2].a[  5] =       307.610000000000;     BAS[ATNO][  2].d[  5] =        -0.007867765768;
  BAS[ATNO][  2].a[  6] =       119.760000000000;     BAS[ATNO][  2].d[  6] =        -0.019949871203;
  BAS[ATNO][  2].a[  7] =        49.437000000000;     BAS[ATNO][  2].d[  7] =        -0.036782723938;
  BAS[ATNO][  2].a[  8] =        21.369000000000;     BAS[ATNO][  2].d[  8] =        -0.039685996217;
  BAS[ATNO][  2].a[  9] =      9226.500000000000;     BAS[ATNO][  2].d[  9] =        -0.000000203524;
  BAS[ATNO][  2].a[ 10] =      2613.200000000000;     BAS[ATNO][  2].d[ 10] =        -0.000008627266;
  BAS[ATNO][  2].a[ 11] =       852.390000000000;     BAS[ATNO][  2].d[ 11] =        -0.000058737423;
  BAS[ATNO][  2].a[ 12] =       307.610000000000;     BAS[ATNO][  2].d[ 12] =        -0.000613530817;
  BAS[ATNO][  2].a[ 13] =       119.760000000000;     BAS[ATNO][  2].d[ 13] =        -0.003705673255;
  BAS[ATNO][  2].a[ 14] =        49.437000000000;     BAS[ATNO][  2].d[ 14] =        -0.020820136171;
  BAS[ATNO][  2].a[ 15] =        21.369000000000;     BAS[ATNO][  2].d[ 15] =        -0.067538122006;
  BAS[ATNO][  2].a[ 16] =         9.392100000000;     BAS[ATNO][  2].d[ 16] =        -0.135306019046;
  BAS[ATNO][  2].a[ 17] =         3.983200000000;     BAS[ATNO][  2].d[ 17] =         0.139046580935;
  BAS[ATNO][  2].a[ 18] =         1.688700000000;     BAS[ATNO][  2].d[ 18] =         1.151037729332;
  BAS[ATNO][  2].a[ 19] =         0.680300000000;     BAS[ATNO][  2].d[ 19] =        -0.762420655039;
  BAS[ATNO][  2].a[ 20] =         0.260240000000;     BAS[ATNO][  2].d[ 20] =        -0.781316344077;

  // Basis function   4 L = s
  InitBFNGauss(BAS[ATNO][  3]);
  BAS[ATNO][  3].l  = 0;
  BAS[ATNO][  3].ng = 21;
  BAS[ATNO][  3].a[  0] =    270660.000000000000;     BAS[ATNO][  3].d[  0] =         0.000004338797;
  BAS[ATNO][  3].a[  1] =     40541.000000000000;     BAS[ATNO][  3].d[  1] =         0.000033687022;
  BAS[ATNO][  3].a[  2] =      9226.500000000000;     BAS[ATNO][  3].d[  2] =         0.000177043087;
  BAS[ATNO][  3].a[  3] =      2613.200000000000;     BAS[ATNO][  3].d[  3] =         0.000740919557;
  BAS[ATNO][  3].a[  4] =       852.390000000000;     BAS[ATNO][  3].d[  4] =         0.002642680383;
  BAS[ATNO][  3].a[  5] =       307.610000000000;     BAS[ATNO][  3].d[  5] =         0.008046178937;
  BAS[ATNO][  3].a[  6] =       119.760000000000;     BAS[ATNO][  3].d[  6] =         0.020402263897;
  BAS[ATNO][  3].a[  7] =        49.437000000000;     BAS[ATNO][  3].d[  7] =         0.037616826343;
  BAS[ATNO][  3].a[  8] =        21.369000000000;     BAS[ATNO][  3].d[  8] =         0.040585934595;
  BAS[ATNO][  3].a[  9] =      9226.500000000000;     BAS[ATNO][  3].d[  9] =         0.000000174248;
  BAS[ATNO][  3].a[ 10] =      2613.200000000000;     BAS[ATNO][  3].d[ 10] =         0.000007386281;
  BAS[ATNO][  3].a[ 11] =       852.390000000000;     BAS[ATNO][  3].d[ 11] =         0.000050288370;
  BAS[ATNO][  3].a[ 12] =       307.610000000000;     BAS[ATNO][  3].d[ 12] =         0.000525277805;
  BAS[ATNO][  3].a[ 13] =       119.760000000000;     BAS[ATNO][  3].d[ 13] =         0.003172632666;
  BAS[ATNO][  3].a[ 14] =        49.437000000000;     BAS[ATNO][  3].d[ 14] =         0.017825274809;
  BAS[ATNO][  3].a[ 15] =        21.369000000000;     BAS[ATNO][  3].d[ 15] =         0.057823136935;
  BAS[ATNO][  3].a[ 16] =         9.392100000000;     BAS[ATNO][  3].d[ 16] =         0.115842997037;
  BAS[ATNO][  3].a[ 17] =         3.983200000000;     BAS[ATNO][  3].d[ 17] =         0.055947690932;
  BAS[ATNO][  3].a[ 18] =         1.688700000000;     BAS[ATNO][  3].d[ 18] =        -2.332741477216;
  BAS[ATNO][  3].a[ 19] =         0.680300000000;     BAS[ATNO][  3].d[ 19] =         4.025238230608;
  BAS[ATNO][  3].a[ 20] =         0.260240000000;     BAS[ATNO][  3].d[ 20] =        -2.323056764457;

  // Basis function   5 L = s
  InitBFNGauss(BAS[ATNO][  4]);
  BAS[ATNO][  4].l  = 0;
  BAS[ATNO][  4].ng = 21;
  BAS[ATNO][  4].a[  0] =    270660.000000000000;     BAS[ATNO][  4].d[  0] =         0.000005868595;
  BAS[ATNO][  4].a[  1] =     40541.000000000000;     BAS[ATNO][  4].d[  1] =         0.000045564590;
  BAS[ATNO][  4].a[  2] =      9226.500000000000;     BAS[ATNO][  4].d[  2] =         0.000239465980;
  BAS[ATNO][  4].a[  3] =      2613.200000000000;     BAS[ATNO][  4].d[  3] =         0.001002157334;
  BAS[ATNO][  4].a[  4] =       852.390000000000;     BAS[ATNO][  4].d[  4] =         0.003574452179;
  BAS[ATNO][  4].a[  5] =       307.610000000000;     BAS[ATNO][  4].d[  5] =         0.010883148043;
  BAS[ATNO][  4].a[  6] =       119.760000000000;     BAS[ATNO][  4].d[  6] =         0.027595814127;
  BAS[ATNO][  4].a[  7] =        49.437000000000;     BAS[ATNO][  4].d[  7] =         0.050879988275;
  BAS[ATNO][  4].a[  8] =        21.369000000000;     BAS[ATNO][  4].d[  8] =         0.054895962181;
  BAS[ATNO][  4].a[  9] =      9226.500000000000;     BAS[ATNO][  4].d[  9] =         0.000001077961;
  BAS[ATNO][  4].a[ 10] =      2613.200000000000;     BAS[ATNO][  4].d[ 10] =         0.000045694163;
  BAS[ATNO][  4].a[ 11] =       852.390000000000;     BAS[ATNO][  4].d[ 11] =         0.000311101748;
  BAS[ATNO][  4].a[ 12] =       307.610000000000;     BAS[ATNO][  4].d[ 12] =         0.003249555373;
  BAS[ATNO][  4].a[ 13] =       119.760000000000;     BAS[ATNO][  4].d[ 13] =         0.019627034376;
  BAS[ATNO][  4].a[ 14] =        49.437000000000;     BAS[ATNO][  4].d[ 14] =         0.110273491533;
  BAS[ATNO][  4].a[ 15] =        21.369000000000;     BAS[ATNO][  4].d[ 15] =         0.357714496392;
  BAS[ATNO][  4].a[ 16] =         9.392100000000;     BAS[ATNO][  4].d[ 16] =         0.716645992282;
  BAS[ATNO][  4].a[ 17] =         3.983200000000;     BAS[ATNO][  4].d[ 17] =        -4.560596191840;
  BAS[ATNO][  4].a[ 18] =         1.688700000000;     BAS[ATNO][  4].d[ 18] =         5.909327004804;
  BAS[ATNO][  4].a[ 19] =         0.680300000000;     BAS[ATNO][  4].d[ 19] =        -3.664873618792;
  BAS[ATNO][  4].a[ 20] =         0.260240000000;     BAS[ATNO][  4].d[ 20] =         1.117409798914;

  // Basis function   6 L = s
  InitBFNGauss(BAS[ATNO][  5]);
  BAS[ATNO][  5].l  = 0;
  BAS[ATNO][  5].ng = 21;
  BAS[ATNO][  5].a[  0] =    270660.000000000000;     BAS[ATNO][  5].d[  0] =         0.000112233486;
  BAS[ATNO][  5].a[  1] =     40541.000000000000;     BAS[ATNO][  5].d[  1] =         0.000871396448;
  BAS[ATNO][  5].a[  2] =      9226.500000000000;     BAS[ATNO][  5].d[  2] =         0.004579648434;
  BAS[ATNO][  5].a[  3] =      2613.200000000000;     BAS[ATNO][  5].d[  3] =         0.019165679683;
  BAS[ATNO][  5].a[  4] =       852.390000000000;     BAS[ATNO][  5].d[  4] =         0.068359331621;
  BAS[ATNO][  5].a[  5] =       307.610000000000;     BAS[ATNO][  5].d[  5] =         0.208133915037;
  BAS[ATNO][  5].a[  6] =       119.760000000000;     BAS[ATNO][  5].d[  6] =         0.527753992732;
  BAS[ATNO][  5].a[  7] =        49.437000000000;     BAS[ATNO][  5].d[  7] =         0.973050363302;
  BAS[ATNO][  5].a[  8] =        21.369000000000;     BAS[ATNO][  5].d[  8] =         1.049853542713;
  BAS[ATNO][  5].a[  9] =      9226.500000000000;     BAS[ATNO][  5].d[  9] =        -0.000004093885;
  BAS[ATNO][  5].a[ 10] =      2613.200000000000;     BAS[ATNO][  5].d[ 10] =        -0.000173537427;
  BAS[ATNO][  5].a[ 11] =       852.390000000000;     BAS[ATNO][  5].d[ 11] =        -0.001181503128;
  BAS[ATNO][  5].a[ 12] =       307.610000000000;     BAS[ATNO][  5].d[ 12] =        -0.012341170872;
  BAS[ATNO][  5].a[ 13] =       119.760000000000;     BAS[ATNO][  5].d[ 13] =        -0.074539608391;
  BAS[ATNO][  5].a[ 14] =        49.437000000000;     BAS[ATNO][  5].d[ 14] =        -0.418796987735;
  BAS[ATNO][  5].a[ 15] =        21.369000000000;     BAS[ATNO][  5].d[ 15] =        -1.358529157596;
  BAS[ATNO][  5].a[ 16] =         9.392100000000;     BAS[ATNO][  5].d[ 16] =        -2.721680239435;
  BAS[ATNO][  5].a[ 17] =         3.983200000000;     BAS[ATNO][  5].d[ 17] =         4.175659798292;
  BAS[ATNO][  5].a[ 18] =         1.688700000000;     BAS[ATNO][  5].d[ 18] =        -3.171562763726;
  BAS[ATNO][  5].a[ 19] =         0.680300000000;     BAS[ATNO][  5].d[ 19] =         1.540418628716;
  BAS[ATNO][  5].a[ 20] =         0.260240000000;     BAS[ATNO][  5].d[ 20] =        -0.432147703509;

  // Basis function   7 L = p
  InitBFNGauss(BAS[ATNO][  6]);
  BAS[ATNO][  6].l  = 1;
  BAS[ATNO][  6].ng = 9;
  BAS[ATNO][  6].a[  0] =       443.450000000000;     BAS[ATNO][  6].d[  0] =         0.001037091113;
  BAS[ATNO][  6].a[  1] =       104.820000000000;     BAS[ATNO][  6].d[  1] =         0.008714540547;
  BAS[ATNO][  6].a[  2] =        33.255000000000;     BAS[ATNO][  6].d[  2] =         0.045043312129;
  BAS[ATNO][  6].a[  3] =        12.548000000000;     BAS[ATNO][  6].d[  3] =         0.146732459286;
  BAS[ATNO][  6].a[  4] =         5.142100000000;     BAS[ATNO][  6].d[  4] =         0.361667968892;
  BAS[ATNO][  6].a[  5] =         2.178300000000;     BAS[ATNO][  6].d[  5] =         0.478856544438;
  BAS[ATNO][  6].a[  6] =         0.906450000000;     BAS[ATNO][  6].d[  6] =         0.131523805719;
  BAS[ATNO][  6].a[  7] =         0.359940000000;     BAS[ATNO][  6].d[  7] =        -0.001809718220;
  BAS[ATNO][  6].a[  8] =         0.135150000000;     BAS[ATNO][  6].d[  8] =         0.000485746679;

  // Basis function   8 L = p
  InitBFNGauss(BAS[ATNO][  7]);
  BAS[ATNO][  7].l  = 1;
  BAS[ATNO][  7].ng = 9;
  BAS[ATNO][  7].a[  0] =       443.450000000000;     BAS[ATNO][  7].d[  0] =        -0.000652354820;
  BAS[ATNO][  7].a[  1] =       104.820000000000;     BAS[ATNO][  7].d[  1] =        -0.005481651958;
  BAS[ATNO][  7].a[  2] =        33.255000000000;     BAS[ATNO][  7].d[  2] =        -0.028333307853;
  BAS[ATNO][  7].a[  3] =        12.548000000000;     BAS[ATNO][  7].d[  3] =        -0.092298184668;
  BAS[ATNO][  7].a[  4] =         5.142100000000;     BAS[ATNO][  7].d[  4] =        -0.227497699853;
  BAS[ATNO][  7].a[  5] =         2.178300000000;     BAS[ATNO][  7].d[  5] =        -0.367388867111;
  BAS[ATNO][  7].a[  6] =         0.906450000000;     BAS[ATNO][  7].d[  6] =         0.568560355403;
  BAS[ATNO][  7].a[  7] =         0.359940000000;     BAS[ATNO][  7].d[  7] =         0.659328981713;
  BAS[ATNO][  7].a[  8] =         0.135150000000;     BAS[ATNO][  7].d[  8] =        -0.017798831807;

  // Basis function   9 L = p
  InitBFNGauss(BAS[ATNO][  8]);
  BAS[ATNO][  8].l  = 1;
  BAS[ATNO][  8].ng = 9;
  BAS[ATNO][  8].a[  0] =       443.450000000000;     BAS[ATNO][  8].d[  0] =         0.000432775179;
  BAS[ATNO][  8].a[  1] =       104.820000000000;     BAS[ATNO][  8].d[  1] =         0.003636553044;
  BAS[ATNO][  8].a[  2] =        33.255000000000;     BAS[ATNO][  8].d[  2] =         0.018796446349;
  BAS[ATNO][  8].a[  3] =        12.548000000000;     BAS[ATNO][  8].d[  3] =         0.061231038931;
  BAS[ATNO][  8].a[  4] =         5.142100000000;     BAS[ATNO][  8].d[  4] =         0.150923017244;
  BAS[ATNO][  8].a[  5] =         2.178300000000;     BAS[ATNO][  8].d[  5] =         0.308826549017;
  BAS[ATNO][  8].a[  6] =         0.906450000000;     BAS[ATNO][  8].d[  6] =        -0.882846347679;
  BAS[ATNO][  8].a[  7] =         0.359940000000;     BAS[ATNO][  8].d[  7] =        -0.066867084425;
  BAS[ATNO][  8].a[  8] =         0.135150000000;     BAS[ATNO][  8].d[  8] =         1.084222810833;

  // Basis function  10 L = p
  InitBFNGauss(BAS[ATNO][  9]);
  BAS[ATNO][  9].l  = 1;
  BAS[ATNO][  9].ng = 9;
  BAS[ATNO][  9].a[  0] =       443.450000000000;     BAS[ATNO][  9].d[  0] =         0.000603517335;
  BAS[ATNO][  9].a[  1] =       104.820000000000;     BAS[ATNO][  9].d[  1] =         0.005071276981;
  BAS[ATNO][  9].a[  2] =        33.255000000000;     BAS[ATNO][  9].d[  2] =         0.026212180748;
  BAS[ATNO][  9].a[  3] =        12.548000000000;     BAS[ATNO][  9].d[  3] =         0.085388430880;
  BAS[ATNO][  9].a[  4] =         5.142100000000;     BAS[ATNO][  9].d[  4] =         0.210466453798;
  BAS[ATNO][  9].a[  5] =         2.178300000000;     BAS[ATNO][  9].d[  5] =         0.613025769298;
  BAS[ATNO][  9].a[  6] =         0.906450000000;     BAS[ATNO][  9].d[  6] =        -2.396383374817;
  BAS[ATNO][  9].a[  7] =         0.359940000000;     BAS[ATNO][  9].d[  7] =         2.795316762116;
  BAS[ATNO][  9].a[  8] =         0.135150000000;     BAS[ATNO][  9].d[  8] =        -1.440388620355;

  // Basis function  11 L = p
  InitBFNGauss(BAS[ATNO][ 10]);
  BAS[ATNO][ 10].l  = 1;
  BAS[ATNO][ 10].ng = 9;
  BAS[ATNO][ 10].a[  0] =       443.450000000000;     BAS[ATNO][ 10].d[  0] =        -0.003012215624;
  BAS[ATNO][ 10].a[  1] =       104.820000000000;     BAS[ATNO][ 10].d[  1] =        -0.025311252664;
  BAS[ATNO][ 10].a[  2] =        33.255000000000;     BAS[ATNO][ 10].d[  2] =        -0.130827626307;
  BAS[ATNO][ 10].a[  3] =        12.548000000000;     BAS[ATNO][ 10].d[  3] =        -0.426182233123;
  BAS[ATNO][ 10].a[  4] =         5.142100000000;     BAS[ATNO][ 10].d[  4] =        -1.050459205693;
  BAS[ATNO][ 10].a[  5] =         2.178300000000;     BAS[ATNO][ 10].d[  5] =         2.878038353346;
  BAS[ATNO][ 10].a[  6] =         0.906450000000;     BAS[ATNO][ 10].d[  6] =        -2.636123579236;
  BAS[ATNO][ 10].a[  7] =         0.359940000000;     BAS[ATNO][ 10].d[  7] =         1.404317558840;
  BAS[ATNO][ 10].a[  8] =         0.135150000000;     BAS[ATNO][ 10].d[  8] =        -0.442019003262;

  // Basis function  12 L = d
  InitBFNGauss(BAS[ATNO][ 11]);
  BAS[ATNO][ 11].l  = 2;
  BAS[ATNO][ 11].ng = 4;
  BAS[ATNO][ 11].a[  0] =        10.000000000000;     BAS[ATNO][ 11].d[  0] =         0.033389354711;
  BAS[ATNO][ 11].a[  1] =         3.000000000000;     BAS[ATNO][ 11].d[  1] =         0.186157907710;
  BAS[ATNO][ 11].a[  2] =         1.150000000000;     BAS[ATNO][ 11].d[  2] =         0.599506868581;
  BAS[ATNO][ 11].a[  3] =         0.400000000000;     BAS[ATNO][ 11].d[  3] =         0.366164107973;

  // Basis function  13 L = d
  InitBFNGauss(BAS[ATNO][ 12]);
  BAS[ATNO][ 12].l  = 2;
  BAS[ATNO][ 12].ng = 4;
  BAS[ATNO][ 12].a[  0] =        10.000000000000;     BAS[ATNO][ 12].d[  0] =        -0.040178301816;
  BAS[ATNO][ 12].a[  1] =         3.000000000000;     BAS[ATNO][ 12].d[  1] =        -0.193403957366;
  BAS[ATNO][ 12].a[  2] =         1.150000000000;     BAS[ATNO][ 12].d[  2] =        -0.801249268845;
  BAS[ATNO][ 12].a[  3] =         0.400000000000;     BAS[ATNO][ 12].d[  3] =         1.166810264064;

  // Basis function  14 L = d
  InitBFNGauss(BAS[ATNO][ 13]);
  BAS[ATNO][ 13].l  = 2;
  BAS[ATNO][ 13].ng = 4;
  BAS[ATNO][ 13].a[  0] =        10.000000000000;     BAS[ATNO][ 13].d[  0] =        -0.041317896946;
  BAS[ATNO][ 13].a[  1] =         3.000000000000;     BAS[ATNO][ 13].d[  1] =        -1.393379741176;
  BAS[ATNO][ 13].a[  2] =         1.150000000000;     BAS[ATNO][ 13].d[  2] =         1.534954968533;
  BAS[ATNO][ 13].a[  3] =         0.400000000000;     BAS[ATNO][ 13].d[  3] =        -0.643045418263;

  // Basis function  15 L = d
  InitBFNGauss(BAS[ATNO][ 14]);
  BAS[ATNO][ 14].l  = 2;
  BAS[ATNO][ 14].ng = 4;
  BAS[ATNO][ 14].a[  0] =        10.000000000000;     BAS[ATNO][ 14].d[  0] =         1.278959149532;
  BAS[ATNO][ 14].a[  1] =         3.000000000000;     BAS[ATNO][ 14].d[  1] =        -1.167415324830;
  BAS[ATNO][ 14].a[  2] =         1.150000000000;     BAS[ATNO][ 14].d[  2] =         0.680796940714;
  BAS[ATNO][ 14].a[  3] =         0.400000000000;     BAS[ATNO][ 14].d[  3] =        -0.221573567676;

  // Basis function  16 L = f
  InitBFNGauss(BAS[ATNO][ 15]);
  BAS[ATNO][ 15].l  = 3;
  BAS[ATNO][ 15].ng = 2;
  BAS[ATNO][ 15].a[  0] =         2.800000000000;     BAS[ATNO][ 15].d[  0] =        -0.032762777462;
  BAS[ATNO][ 15].a[  1] =         1.150000000000;     BAS[ATNO][ 15].d[  1] =         1.020971315189;

  // Basis function  17 L = f
  InitBFNGauss(BAS[ATNO][ 16]);
  BAS[ATNO][ 16].l  = 3;
  BAS[ATNO][ 16].ng = 2;
  BAS[ATNO][ 16].a[  0] =         2.800000000000;     BAS[ATNO][ 16].d[  0] =         1.314854211242;
  BAS[ATNO][ 16].a[  1] =         1.150000000000;     BAS[ATNO][ 16].d[  1] =        -0.829175837787;

  // Basis function  18 L = g
  InitBFNGauss(BAS[ATNO][ 17]);
  BAS[ATNO][ 17].l  = 4;
  BAS[ATNO][ 17].ng = 1;
  BAS[ATNO][ 17].a[  0] =         1.800000000000;     BAS[ATNO][ 17].d[  0] =         1.000000000000;

-------
TIMINGS
-------

Total SCF time: 0 days 0 hours 0 min 1 sec 

Total time                  ....       1.874 sec
Sum of individual times     ....       1.695 sec  ( 90.5%)

Fock matrix formation       ....       1.287 sec  ( 68.7%)
  XC integration            ....       0.029 sec  (  2.2% of F)
    Basis function eval.    ....       0.004 sec  ( 15.1% of XC)
    Density eval.           ....       0.002 sec  (  7.4% of XC)
    XC-Functional eval.     ....       0.002 sec  (  6.8% of XC)
    XC-Potential eval.      ....       0.003 sec  ( 11.6% of XC)
Diagonalization             ....       0.004 sec  (  0.2%)
Density matrix formation    ....       0.001 sec  (  0.0%)
Population analysis         ....       0.001 sec  (  0.0%)
Initial guess               ....       0.086 sec  (  4.6%)
Orbital Transformation      ....       0.000 sec  (  0.0%)
Orbital Orthonormalization  ....       0.000 sec  (  0.0%)
DIIS solution               ....       0.001 sec  (  0.1%)
SOSCF solution              ....       0.001 sec  (  0.0%)
Grid generation             ....       0.315 sec  ( 16.8%)

-------------------------   --------------------
FINAL SINGLE POINT ENERGY       -93.213540452744
-------------------------   --------------------


                            ***************************************
                            *     ORCA property calculations      *
                            ***************************************

                                    ---------------------
                                    Active property flags
                                    ---------------------
   (+) Dipole Moment


------------------------------------------------------------------------------
                       ORCA ELECTRIC PROPERTIES CALCULATION
------------------------------------------------------------------------------

Dipole Moment Calculation                       ... on
Quadrupole Moment Calculation                   ... off
Polarizability Calculation                      ... off
GBWName                                         ... Ne_pc-3_2192.575824_.gbw
Electron density file                           ... Ne_pc-3_2192.575824_.scfp
The origin for moment calculation is the CENTER OF MASS  = ( 0.000000,  0.000000  0.000000)

-------------
DIPOLE MOMENT
-------------
                                X             Y             Z
Electronic contribution:      0.00000       0.00000       0.00000
Nuclear contribution   :      0.00000       0.00000       0.00000
                        -----------------------------------------
Total Dipole Moment    :      0.00000       0.00000       0.00000
                        -----------------------------------------
Magnitude (a.u.)       :      0.00000
Magnitude (Debye)      :      0.00000



--------------------
Rotational spectrum 
--------------------
 
Rotational constants in cm-1:     0.000000     0.000000     0.000000 
Rotational constants in MHz :     0.000000     0.000000     0.000000 

 Dipole components along the rotational axes: 
x,y,z [a.u.] :     0.000000     0.000000     0.000000 
x,y,z [Debye]:     0.000000     0.000000     0.000000 

 

Timings for individual modules:

Sum of individual times         ...        3.023 sec (=   0.050 min)
GTO integral calculation        ...        0.506 sec (=   0.008 min)  16.7 %
Relativistic integrals          ...        0.385 sec (=   0.006 min)  12.7 %
SCF iterations                  ...        2.132 sec (=   0.036 min)  70.5 %
                             ****ORCA TERMINATED NORMALLY****
TOTAL RUN TIME: 0 days 0 hours 0 minutes 3 seconds 331 msec
