
                                 *****************
                                 * O   R   C   A *
                                 *****************

           --- An Ab Initio, DFT and Semiempirical electronic structure package ---

                  #######################################################
                  #                        -***-                        #
                  #          Department of theory and spectroscopy      #
                  #               Directorship: Frank Neese             #
                  #        Max Planck Institute fuer Kohlenforschung    #
                  #                Kaiser Wilhelm Platz 1               #
                  #                 D-45470 Muelheim/Ruhr               #
                  #                      Germany                        #
                  #                                                     #
                  #                  All rights reserved                #
                  #                        -***-                        #
                  #######################################################


                         Program Version 4.2.1 -  RELEASE  -


 With contributions from (in alphabetic order):
   Daniel Aravena         : Magnetic Suceptibility
   Michael Atanasov       : Ab Initio Ligand Field Theory (pilot matlab implementation)
   Alexander A. Auer      : GIAO ZORA, VPT2
   Ute Becker             : Parallelization
   Giovanni Bistoni       : ED, misc. LED, open-shell LED, HFLD
   Martin Brehm           : Molecular dynamics
   Dmytro Bykov           : SCF Hessian
   Vijay G. Chilkuri      : MRCI spin determinant printing, contributions to CSF-ICE
   Dipayan Datta          : RHF DLPNO-CCSD density
   Achintya Kumar Dutta   : EOM-CC, STEOM-CC
   Dmitry Ganyushin       : Spin-Orbit,Spin-Spin,Magnetic field MRCI
   Miquel Garcia          : C-PCM Hessian, Gaussian charge scheme
   Yang Guo               : DLPNO-NEVPT2, CIM, IAO-localization
   Andreas Hansen         : Spin unrestricted coupled pair/coupled cluster methods
   Benjamin Helmich-Paris : CASSCF linear response (MC-RPA)
   Lee Huntington         : MR-EOM, pCC
   Robert Izsak           : Overlap fitted RIJCOSX, COSX-SCS-MP3, EOM
   Christian Kollmar      : KDIIS, OOCD, Brueckner-CCSD(T), CCSD density
   Simone Kossmann        : Meta GGA functionals, TD-DFT gradient, OOMP2, MP2 Hessian
   Martin Krupicka        : AUTO-CI
   Lucas Lang             : DCDCAS
   Dagmar Lenk            : GEPOL surface, SMD
   Dimitrios Liakos       : Extrapolation schemes; Compound Job, initial MDCI parallelization
   Dimitrios Manganas     : Further ROCIS development; embedding schemes
   Dimitrios Pantazis     : SARC Basis sets
   Taras Petrenko         : DFT Hessian,TD-DFT gradient, ASA, ECA, R-Raman, ABS, FL, XAS/XES, NRVS
   Peter Pinski           : DLPNO-MP2, DLPNO-MP2 Gradient
   Christoph Reimann      : Effective Core Potentials
   Marius Retegan         : Local ZFS, SOC
   Christoph Riplinger    : Optimizer, TS searches, QM/MM, DLPNO-CCSD(T), (RO)-DLPNO pert. Triples
   Tobias Risthaus        : Range-separated hybrids, TD-DFT gradient, RPA, STAB
   Michael Roemelt        : Original ROCIS implementation
   Masaaki Saitow         : Open-shell DLPNO-CCSD energy and density
   Barbara Sandhoefer     : DKH picture change effects
   Avijit Sen             : IP-ROCIS
   Kantharuban Sivalingam : CASSCF convergence, NEVPT2, FIC-MRCI
   Bernardo de Souza      : ESD, SOC TD-DFT
   Georgi Stoychev        : AutoAux, RI-MP2 NMR
   Willem Van den Heuvel  : Paramagnetic NMR
   Boris Wezisla          : Elementary symmetry handling
   Frank Wennmohs         : Technical directorship


 We gratefully acknowledge several colleagues who have allowed us to
 interface, adapt or use parts of their codes:
   Stefan Grimme, W. Hujo, H. Kruse,             : VdW corrections, initial TS optimization,
                  C. Bannwarth                     DFT functionals, gCP, sTDA/sTD-DF
   Ed Valeev, F. Pavosevic, A. Kumar             : LibInt (2-el integral package), F12 methods
   Garnet Chan, S. Sharma, J. Yang, R. Olivares  : DMRG
   Ulf Ekstrom                                   : XCFun DFT Library
   Mihaly Kallay                                 : mrcc  (arbitrary order and MRCC methods)
   Andreas Klamt, Michael Diedenhofen            : otool_cosmo (COSMO solvation model)
   Jiri Pittner, Ondrej Demel                    : Mk-CCSD
   Frank Weinhold                                : gennbo (NPA and NBO analysis)
   Christopher J. Cramer and Donald G. Truhlar   : smd solvation model
   Lars Goerigk                                  : TD-DFT with DH, B97 family of functionals
   V. Asgeirsson, H. Jonsson                     : NEB implementation
   FAccTs GmbH                                   : IRC, NEB, NEB-TS, Multilevel, MM, QM/MM, CI optimization
   S Lehtola, MJT Oliveira, MAL Marques          : LibXC Library


 Your calculation uses the libint2 library for the computation of 2-el integrals
 For citations please refer to: http://libint.valeyev.net

 Your ORCA version has been built with support for libXC version: 4.2.3
 For citations please refer to: https://tddft.org/programs/libxc/

 This ORCA versions uses:
   CBLAS   interface :  Fast vector & matrix operations
   LAPACKE interface :  Fast linear algebra routines
   SCALAPACK package :  Parallel linear algebra routines


----- Orbital basis set information -----
Your calculation utilizes the basis: ZORA-def2-QZVPP 
   Exponents from def2-QZVPP [F. Weigend and R. Ahlrichs, Phys. Chem. Chem. Phys. 7, 3297 (2005)],
   recontracted for ZORA by D. A. Pantazis.

================================================================================
                                        WARNINGS
                       Please study these warnings very carefully!
================================================================================


INFO   : the flag for use of LIBINT has been found!

================================================================================
                                       INPUT FILE
================================================================================
NAME = Ne_zora-def2-qzvpp_34.25899725_.inp
|  1> ! LDA zora-def2-qzvpp nori grid5 finalgrid6 verytightscf
|  2> %Pal NProcs 18 End
|  3> 
|  4> % REL
|  5>   Method ZORA
|  6>   ModelPot 1, 0, 0, 0
|  7>   velit 34.25899725
|  8> END
|  9> 
| 10> *xyz 8 1
| 11> Ne 0.0 0.0 0.0
| 12> **                         ****END OF INPUT****
================================================================================

                       ****************************
                       * Single Point Calculation *
                       ****************************

---------------------------------
CARTESIAN COORDINATES (ANGSTROEM)
---------------------------------
  Ne     0.000000    0.000000    0.000000

----------------------------
CARTESIAN COORDINATES (A.U.)
----------------------------
  NO LB      ZA    FRAG     MASS         X           Y           Z
   0 Ne   10.0000    0    20.179    0.000000    0.000000    0.000000

--------------------------------
INTERNAL COORDINATES (ANGSTROEM)
--------------------------------
 Ne     0   0   0     0.000000000000     0.00000000     0.00000000

---------------------------
INTERNAL COORDINATES (A.U.)
---------------------------
 Ne     0   0   0     0.000000000000     0.00000000     0.00000000

---------------------
BASIS SET INFORMATION
---------------------
There are 1 groups of distinct atoms

 Group   1 Type Ne  : 15s9p3d2f1g contracted to 8s4p3d2f1g pattern {81111111/6111/111/11/1}

Atom   0Ne   basis set group =>   1


           ************************************************************
           *        Program running with 18 parallel MPI-processes    *
           *              working on a common directory               *
           ************************************************************
------------------------------------------------------------------------------
                           ORCA GTO INTEGRAL CALCULATION
------------------------------------------------------------------------------

                         BASIS SET STATISTICS AND STARTUP INFO

 # of primitive gaussian shells          ...   30
 # of primitive gaussian functions       ...   80
 # of contracted shells                  ...   18
 # of contracted basis functions         ...   58
 Highest angular momentum                ...    4
 Maximum contraction depth               ...    8
 Integral package used                   ... LIBINT
 Integral threshhold            Thresh   ...  1.000e-12
 Primitive cut-off              TCut     ...  1.000e-14


------------------------------ INTEGRAL EVALUATION ----------------------------


 * One electron integrals 
 Pre-screening matrix                    ... done
 Shell pair data                         ... done (   0.000 sec)



           ************************************************************
           *        Program running with 18 parallel MPI-processes    *
           *              working on a common directory               *
           ************************************************************
------------------------------------------------------------------------------
                          ORCA RELATIVISTIC HAMILTONIAN
------------------------------------------------------------------------------

Relativistic Method            ... ZORA(MP)
Treatment of potential         ... Van Wuellen
Nucleus model                  ... Point Nucleus
Speed of light used            ...  34.25899725000000


            *************************************************
            *         ZERO ORDER REGULAR APPROXIMATION      *
            *                     ZORA(MP)                  *
            *            Programmed by FN according to      *
            *                   C. van Wuellen              *
            *       J. Chem. Phys. (1998) vol 109, 392-399  *
            *************************************************

Terms included in model potential: +V(e,N)
Basis function cutoff value   ... 1.000000e-12
Loading the fitted atomic densities  (DKH4)  ... done
Calculating the cutoffs                      ... done
Number of fit functions                      ... 11
Setting up the integration grid ... done


           ************************************************************
           *        Program running with 18 parallel MPI-processes    *
           *              working on a common directory               *
           ************************************************************
-------------------------------------------------------------------------------
                                 ORCA SCF
-------------------------------------------------------------------------------

------------
SCF SETTINGS
------------
Hamiltonian:
 Density Functional     Method          .... DFT(GTOs)
 Exchange Functional    Exchange        .... Slater
   X-Alpha parameter    XAlpha          ....  0.666667
 Correlation Functional Correlation     .... VWN-5
 Gradients option       PostSCFGGA      .... off
   Density functional embedding theory  .... OFF

Relativistic Settings:
 Scalar relativistic method             .... ZORA
 Speed of light used       Velit        ....       34.2589973
Orbital energies will be scaled


General Settings:
 Integral files         IntName         .... Ne_zora-def2-qzvpp_34.25899725_
 Hartree-Fock type      HFTyp           .... RHF
 Total Charge           Charge          ....    8
 Multiplicity           Mult            ....    1
 Number of Electrons    NEL             ....    2
 Basis Dimension        Dim             ....   58
 Nuclear Repulsion      ENuc            ....      0.0000000000 Eh

Convergence Acceleration:
 DIIS                   CNVDIIS         .... on
   Start iteration      DIISMaxIt       ....    12
   Startup error        DIISStart       ....  0.200000
   # of expansion vecs  DIISMaxEq       ....     5
   Bias factor          DIISBfac        ....   1.050
   Max. coefficient     DIISMaxC        ....  10.000
 Newton-Raphson         CNVNR           .... off
 SOSCF                  CNVSOSCF        .... on
   Start iteration      SOSCFMaxIt      ....   150
   Startup grad/error   SOSCFStart      ....  0.003300
 Level Shifting         CNVShift        .... on
   Level shift para.    LevelShift      ....    0.2500
   Turn off err/grad.   ShiftErr        ....    0.0010
 Zerner damping         CNVZerner       .... off
 Static damping         CNVDamp         .... on
   Fraction old density DampFac         ....    0.7000
   Max. Damping (<1)    DampMax         ....    0.9800
   Min. Damping (>=0)   DampMin         ....    0.0000
   Turn off err/grad.   DampErr         ....    0.1000
 Fernandez-Rico         CNVRico         .... off

SCF Procedure:
 Maximum # iterations   MaxIter         ....   125
 SCF integral mode      SCFMode         .... Direct
   Integral package                     .... LIBINT
 Reset frequency        DirectResetFreq ....    20
 Integral Threshold     Thresh          ....  1.000e-12 Eh
 Primitive CutOff       TCut            ....  1.000e-14 Eh

Convergence Tolerance:
 Convergence Check Mode ConvCheckMode   .... Total+1el-Energy
 Convergence forced     ConvForced      .... 0
 Energy Change          TolE            ....  1.000e-09 Eh
 1-El. energy change                    ....  1.000e-06 Eh
 Orbital Gradient       TolG            ....  2.000e-06
 Orbital Rotation angle TolX            ....  2.000e-06
 DIIS Error             TolErr          ....  1.000e-08


Diagonalization of the overlap matrix:
Smallest eigenvalue                        ... 1.609e-03
Time for diagonalization                   ...    0.002 sec
Threshold for overlap eigenvalues          ... 1.000e-08
Number of eigenvalues below threshold      ... 0
Time for construction of square roots      ...    0.001 sec
Total time needed                          ...    0.003 sec

-------------------
DFT GRID GENERATION
-------------------

General Integration Accuracy     IntAcc      ...  5.010
Radial Grid Type                 RadialGrid  ... Gauss-Chebyshev
Angular Grid (max. acc.)         AngularGrid ... Lebedev-434
Angular grid pruning method      GridPruning ... 3 (G Style)
Weight generation scheme         WeightScheme... Becke
Basis function cutoff            BFCut       ...    1.0000e-12
Integration weight cutoff        WCut        ...    1.0000e-14
Grids for H and He will be reduced by one unit

# of grid points (after initial pruning)     ...  10818 (   0.0 sec)
# of grid points (after weights+screening)   ...  10818 (   0.0 sec)
Grid point division into batches done        ...    0.1 sec
Reduced shell lists constructed in    0.1 sec

Total number of grid points                  ...    10818
Total number of batches                      ...      170
Average number of points per batch           ...       63
Average number of grid points per atom       ...    10818
Average number of shells per batch           ...     0.00 ( 0.00%)
Average number of basis functions per batch  ...     0.00 ( 0.00%)
Average number of large shells per batch     ...     0.00 ( -nan%)
Average number of large basis fcns per batch ...     0.00 ( -nan%)
Maximum spatial batch extension              ...  16.29, 16.29, 16.29 au
Average spatial batch extension              ...   0.85,  0.86,  0.85 au

Time for grid setup =    0.131 sec

------------------------------
INITIAL GUESS: MODEL POTENTIAL
------------------------------
Loading ZORA relativistic densities                ... done
Calculating cut-offs                               ... done
Setting up the integral package                    ... done
Initializing the effective Hamiltonian             ... done
Starting the Coulomb interaction                   ... done (   0.0 sec)
Reading the grid                                   ... done
Mapping shells                                     ... done
Starting the XC term evaluation                    ... done (   0.0 sec)
  promolecular density results
     # of electrons  =     10.000000334
     EX              =    -11.053709298
     EC              =     -0.746638772
     EX+EC           =    -11.800348070
Transforming the Hamiltonian                       ... done (   0.0 sec)
Diagonalizing the Hamiltonian                      ... done (   0.0 sec)
Back transforming the eigenvectors                 ... done (   0.0 sec)
Now organizing SCF variables                       ... done
                      ------------------
                      INITIAL GUESS DONE (   0.2 sec)
                      ------------------
--------------
SCF ITERATIONS
--------------
ITER       Energy         Delta-E        Max-DP      RMS-DP      [F,P]     Damp
               ***  Starting incremental Fock matrix formation  ***
  0    -97.2934603438   0.000000000000 0.00588899  0.00015364  0.5736865 0.7000
  1    -97.2953543897  -0.001894045898 0.00413607  0.00010758  0.3946969 0.7000
                      *** Initiating the SOSCF procedure ***
                      *** Re-Reading the Fockian *** 
                      *** Removing any level shift *** 
ITER      Energy       Delta-E        Grad      Rot      Max-DP    RMS-DP
  2    -97.29665819  -0.0013038044  0.002736  0.002736  0.009611  0.000249
               *** Restarting incremental Fock matrix formation ***
  3    -97.29963382  -0.0029756305  0.006227  0.000100  0.000563  0.000010
  4    -97.29963640  -0.0000025778  0.000343  0.000006  0.000032  0.000001
                  ***Gradient check signals convergence***
              ***Rediagonalizing the Fockian in SOSCF/NRSCF***

               *****************************************************
               *                     SUCCESS                       *
               *           SCF CONVERGED AFTER   5 CYCLES          *
               *****************************************************

Setting up the final grid:

General Integration Accuracy     IntAcc      ...  5.340
Radial Grid Type                 RadialGrid  ... Gauss-Chebyshev
Angular Grid (max. acc.)         AngularGrid ... Lebedev-590
Angular grid pruning method      GridPruning ... 3 (G Style)
Weight generation scheme         WeightScheme... Becke
Basis function cutoff            BFCut       ...    1.0000e-12
Integration weight cutoff        WCut        ...    1.0000e-14
Grids for H and He will be reduced by one unit

# of grid points (after initial pruning)     ...  16840 (   0.0 sec)
# of grid points (after weights+screening)   ...  16840 (   0.0 sec)
Grid point division into batches done        ...    0.2 sec
Reduced shell lists constructed in    0.2 sec

Total number of grid points                  ...    16840
Total number of batches                      ...      264
Average number of points per batch           ...       63
Average number of grid points per atom       ...    16840
Average number of shells per batch           ...     0.00 ( 0.00%)
Average number of basis functions per batch  ...     0.00 ( 0.00%)
Average number of large shells per batch     ...     0.00 ( -nan%)
Average number of large basis fcns per batch ...     0.00 ( -nan%)
Maximum spatial batch extension              ...  16.63, 16.63, 16.63 au
Average spatial batch extension              ...   0.74,  0.74,  0.69 au

Final grid set up in    0.2 sec
Final integration                            ... done (   0.0 sec)
Change in XC energy                          ...    -0.000000063
Integrated number of electrons               ...     2.000000005
Previous integrated no of electrons          ...     2.000000014

----------------
TOTAL SCF ENERGY
----------------

Total Energy       :          -97.29963647 Eh           -2647.65771 eV

Components:
Nuclear Repulsion  :            0.00000000 Eh               0.00000 eV
Electronic Energy  :          -97.29963647 Eh           -2647.65771 eV
One Electron Energy:         -104.29851725 Eh           -2838.10694 eV
Two Electron Energy:            6.99888077 Eh             190.44923 eV

Virial components:
Potential Energy   :         -198.65800969 Eh           -5405.75927 eV
Kinetic Energy     :          101.35837322 Eh            2758.10155 eV
Virial Ratio       :            1.95995657


DFT components:
N(Alpha)           :        1.000000002721 electrons
N(Beta)            :        1.000000002721 electrons
N(Total)           :        2.000000005441 electrons
E(X)               :       -5.433095299050 Eh       
E(C)               :       -0.205445794291 Eh       
E(XC)              :       -5.638541093341 Eh       
DFET-embed. en.    :        0.000000000000 Eh       

---------------
SCF CONVERGENCE
---------------

  Last Energy change         ...   -8.5928e-09  Tolerance :   1.0000e-09
  Last MAX-Density change    ...    6.6143e-09  Tolerance :   1.0000e-08
  Last RMS-Density change    ...    1.8730e-10  Tolerance :   1.0000e-09
  Last Orbital Gradient      ...    5.1307e-08  Tolerance :   2.0000e-06
  Last Orbital Rotation      ...    5.6344e-10  Tolerance :   2.0000e-06

             **** THE GBW FILE WAS UPDATED (Ne_zora-def2-qzvpp_34.25899725_.gbw) ****
             **** DENSITY FILE WAS UPDATED (Ne_zora-def2-qzvpp_34.25899725_.scfp) ****
             **** ENERGY FILE WAS UPDATED (Ne_zora-def2-qzvpp_34.25899725_.en.tmp) ****
             **** THE GBW FILE WAS UPDATED (Ne_zora-def2-qzvpp_34.25899725_.gbw) ****
             **** DENSITY FILE WAS UPDATED (Ne_zora-def2-qzvpp_34.25899725_.scfp) ****
----------------
ORBITAL ENERGIES
----------------

  NO   OCC          E(Eh)            E(eV) 
   0   2.0000     -43.245860     -1176.7797 
   1   0.0000      -9.328939      -253.8533 
   2   0.0000      -8.715765      -237.1680 
   3   0.0000      -8.715765      -237.1680 
   4   0.0000      -8.715765      -237.1680 
   5   0.0000      -3.916989      -106.5867 
   6   0.0000      -3.745454      -101.9190 
   7   0.0000      -3.745454      -101.9190 
   8   0.0000      -3.745454      -101.9190 
   9   0.0000      -3.602178       -98.0202 
  10   0.0000      -3.602178       -98.0202 
  11   0.0000      -3.602178       -98.0202 
  12   0.0000      -3.602178       -98.0202 
  13   0.0000      -3.602178       -98.0202 
  14   0.0000      -2.075169       -56.4682 
  15   0.0000      -2.075169       -56.4682 
  16   0.0000      -2.075169       -56.4682 
  17   0.0000      -1.615222       -43.9524 
  18   0.0000      -0.573778       -15.6133 
  19   0.0000      -0.573778       -15.6133 
  20   0.0000      -0.573778       -15.6133 
  21   0.0000      -0.468829       -12.7575 
  22   0.0000      -0.468829       -12.7575 
  23   0.0000      -0.468829       -12.7575 
  24   0.0000      -0.468829       -12.7575 
  25   0.0000      -0.468829       -12.7575 
  26   0.0000      -0.402073       -10.9410 
  27   0.0000      -0.402073       -10.9410 
  28   0.0000      -0.402073       -10.9410 
  29   0.0000      -0.402073       -10.9410 
  30   0.0000      -0.402073       -10.9410 
  31   0.0000      -0.402073       -10.9410 
  32   0.0000      -0.402073       -10.9410 
  33   0.0000       7.308252       198.8677 
  34   0.0000       7.308252       198.8677 
  35   0.0000       7.308252       198.8677 
  36   0.0000       7.308252       198.8677 
  37   0.0000       7.308252       198.8677 
  38   0.0000       7.308252       198.8677 
  39   0.0000       7.308252       198.8677 
  40   0.0000       7.308252       198.8677 
  41   0.0000       7.308252       198.8677 
  42   0.0000       8.112645       220.7563 
  43   0.0000      10.784728       293.4674 
  44   0.0000      10.784728       293.4674 
  45   0.0000      10.784728       293.4674 
  46   0.0000      10.784728       293.4674 
  47   0.0000      10.784728       293.4674 
  48   0.0000      10.784728       293.4674 
  49   0.0000      10.784728       293.4674 
  50   0.0000      11.054340       300.8039 
  51   0.0000      11.054340       300.8039 
  52   0.0000      11.054340       300.8039 
  53   0.0000      11.054340       300.8039 
  54   0.0000      11.054340       300.8039 
  55   0.0000      47.700799      1298.0047 
  56   0.0000     199.318534      5423.7331 
  57   0.0000     955.932710     26012.2515 

                    ********************************
                    * MULLIKEN POPULATION ANALYSIS *
                    ********************************

-----------------------
MULLIKEN ATOMIC CHARGES
-----------------------
   0 Ne:    8.000000
Sum of atomic charges:    8.0000000

--------------------------------
MULLIKEN REDUCED ORBITAL CHARGES
--------------------------------
  0 Nes       :     2.000000  s :     2.000000
      pz      :     0.000000  p :     0.000000
      px      :     0.000000
      py      :     0.000000
      dz2     :     0.000000  d :     0.000000
      dxz     :     0.000000
      dyz     :     0.000000
      dx2y2   :     0.000000
      dxy     :     0.000000
      f0      :     0.000000  f :     0.000000
      f+1     :     0.000000
      f-1     :     0.000000
      f+2     :     0.000000
      f-2     :     0.000000
      f+3     :     0.000000
      f-3     :     0.000000
      g0      :     0.000000  g :     0.000000
      g+1     :     0.000000
      g-1     :     0.000000
      g+2     :     0.000000
      g-2     :     0.000000
      g+3     :     0.000000
      g-3     :     0.000000
      g+4     :     0.000000
      g-4     :     0.000000


                     *******************************
                     * LOEWDIN POPULATION ANALYSIS *
                     *******************************

----------------------
LOEWDIN ATOMIC CHARGES
----------------------
   0 Ne:    8.000000

-------------------------------
LOEWDIN REDUCED ORBITAL CHARGES
-------------------------------
  0 Nes       :     2.000000  s :     2.000000
      pz      :     0.000000  p :     0.000000
      px      :     0.000000
      py      :     0.000000
      dz2     :     0.000000  d :     0.000000
      dxz     :     0.000000
      dyz     :     0.000000
      dx2y2   :     0.000000
      dxy     :     0.000000
      f0      :     0.000000  f :     0.000000
      f+1     :     0.000000
      f-1     :     0.000000
      f+2     :     0.000000
      f-2     :     0.000000
      f+3     :     0.000000
      f-3     :     0.000000
      g0      :     0.000000  g :     0.000000
      g+1     :     0.000000
      g-1     :     0.000000
      g+2     :     0.000000
      g-2     :     0.000000
      g+3     :     0.000000
      g-3     :     0.000000
      g+4     :     0.000000
      g-4     :     0.000000


                      *****************************
                      * MAYER POPULATION ANALYSIS *
                      *****************************

  NA   - Mulliken gross atomic population
  ZA   - Total nuclear charge
  QA   - Mulliken gross atomic charge
  VA   - Mayer's total valence
  BVA  - Mayer's bonded valence
  FA   - Mayer's free valence

  ATOM       NA         ZA         QA         VA         BVA        FA
  0 Ne     2.0000    10.0000     8.0000     0.0000     0.0000     0.0000

  Mayer bond orders larger than 0.100000


--------------------------
ATOM BASIS FOR ELEMENT Ne
--------------------------
 NewGTO Ne
 S 15
    1     160676.279550000007         0.000077702878
    2      23953.195038999998         0.000542431827
    3       5437.506371100000         0.002743597674
    4       1544.274102400000         0.011154879439
    5        507.888142690000         0.038435035518
    6        184.948477500000         0.112820373811
    7         72.522952039000         0.270665835101
    8         30.088713575000         0.476569602426
    9        120.684349400000        -0.044536581841
   10         36.074294857000        -0.128819352450
   11         13.052091210000         0.308567089690
   12          5.797478335300         0.114554499479
   13          2.047862689500        -0.005250779219
   14          0.802145719900         0.003479972428
   15          0.305486722000        -0.001048411618
 S 15
    1     160676.279550000007         0.000026039268
    2      23953.195038999998         0.000181776118
    3       5437.506371100000         0.000919416059
    4       1544.274102400000         0.003738148415
    5        507.888142690000         0.012880091435
    6        184.948477500000         0.037807607325
    7         72.522952039000         0.090703720118
    8         30.088713575000         0.159704810246
    9        120.684349400000        -0.009205627996
   10         36.074294857000         0.000007043761
   11         13.052091210000         0.248093803867
   12          5.797478335300        -0.069734309668
   13          2.047862689500        -0.826008957119
   14          0.802145719900        -0.265591521810
   15          0.305486722000         0.012011020769
 S 15
    1     160676.279550000007        -0.000013682278
    2      23953.195038999998        -0.000095513876
    3       5437.506371100000        -0.000483105220
    4       1544.274102400000        -0.001964202164
    5        507.888142690000        -0.006767816752
    6        184.948477500000        -0.019865927156
    7         72.522952039000        -0.047660077539
    8         30.088713575000        -0.083916554137
    9        120.684349400000         0.005310874197
   10         36.074294857000        -0.007977801874
   11         13.052091210000        -0.130018284080
   12          5.797478335300         0.006570548641
   13          2.047862689500         1.079767450128
   14          0.802145719900        -0.384492245795
   15          0.305486722000        -0.999513367941
 S 15
    1     160676.279550000007        -0.000015818208
    2      23953.195038999998        -0.000110424477
    3       5437.506371100000        -0.000558522422
    4       1544.274102400000        -0.002270832323
    5        507.888142690000        -0.007824335662
    6        184.948477500000        -0.022967182476
    7         72.522952039000        -0.055100257293
    8         30.088713575000        -0.097016705864
    9        120.684349400000         0.011132529570
   10         36.074294857000        -0.030842447198
   11         13.052091210000        -0.045071807594
   12          5.797478335300        -0.280092640580
   13          2.047862689500         2.615734423167
   14          0.802145719900        -4.096992195287
   15          0.305486722000         2.233072029354
 S 15
    1     160676.279550000007        -0.000030716475
    2      23953.195038999998        -0.000214426979
    3       5437.506371100000        -0.001084562760
    4       1544.274102400000        -0.004409599462
    5        507.888142690000        -0.015193630095
    6        184.948477500000        -0.044598658588
    7         72.522952039000        -0.106996039486
    8         30.088713575000        -0.188391194551
    9        120.684349400000        -0.051609884420
   10         36.074294857000         0.192809163601
   11         13.052091210000        -1.977654407862
   12          5.797478335300         4.836175254217
   13          2.047862689500        -4.956471621513
   14          0.802145719900         3.125886300955
   15          0.305486722000        -0.970057875194
 S 15
    1     160676.279550000007        -0.000095210079
    2      23953.195038999998        -0.000664646901
    3       5437.506371100000        -0.003361756445
    4       1544.274102400000        -0.013668180364
    5        507.888142690000        -0.047094816273
    6        184.948477500000        -0.138239882046
    7         72.522952039000        -0.331649434000
    8         30.088713575000        -0.583945287543
    9        120.684349400000         0.265310471156
   10         36.074294857000        -1.591137090142
   11         13.052091210000         5.692251591107
   12          5.797478335300        -5.303362902673
   13          2.047862689500         2.884657956860
   14          0.802145719900        -1.433494527182
   15          0.305486722000         0.410864851308
 S 15
    1     160676.279550000007         0.000055754578
    2      23953.195038999998         0.000389214126
    3       5437.506371100000         0.001968628897
    4       1544.274102400000         0.008004022682
    5        507.888142690000         0.027578504791
    6        184.948477500000         0.080952630270
    7         72.522952039000         0.194212361964
    8         30.088713575000         0.341955637264
    9        120.684349400000         1.778067985194
   10         36.074294857000        -4.109073156343
   11         13.052091210000         3.927632228046
   12          5.797478335300        -2.739009665208
   13          2.047862689500         1.313799192859
   14          0.802145719900        -0.643029195814
   15          0.305486722000         0.185161786151
 S 15
    1     160676.279550000007        -0.001884199062
    2      23953.195038999998        -0.013153303473
    3       5437.506371100000        -0.066528863146
    4       1544.274102400000        -0.270492082256
    5        507.888142690000        -0.932002254746
    6        184.948477500000        -2.735755056700
    7         72.522952039000        -6.563313008454
    8         30.088713575000       -11.556225667967
    9        120.684349400000         7.874207581157
   10         36.074294857000        11.713595166069
   11         13.052091210000         3.156747229007
   12          5.797478335300        -1.656391195309
   13          2.047862689500         0.739233706732
   14          0.802145719900        -0.358264435376
   15          0.305486722000         0.103089876560
 P 9
    1        498.433974660000         0.000852910076
    2        118.141092170000         0.006927365057
    3         38.032529735000         0.034653817780
    4         14.183731950000         0.123285961697
    5          5.786419072100         0.315779485480
    6          2.459962216000         0.552661894069
    7          1.042199949800         0.094940578500
    8          0.429877489200         0.049116039815
    9          0.168897084500        -0.015925669938
 P 9
    1        498.433974660000         0.000572004250
    2        118.141092170000         0.004645838247
    3         38.032529735000         0.023240587255
    4         14.183731950000         0.082681745728
    5          5.786419072100         0.211777551680
    6          2.459962216000         0.370642768813
    7          1.042199949800        -0.397835332208
    8          0.429877489200        -0.763019045083
    9          0.168897084500        -0.025520485831
 P 9
    1        498.433974660000         0.000404520337
    2        118.141092170000         0.003285528129
    3         38.032529735000         0.016435699889
    4         14.183731950000         0.058472376112
    5          5.786419072100         0.149768688902
    6          2.459962216000         0.262117873665
    7          1.042199949800        -0.572256967854
    8          0.429877489200        -0.597695404597
    9          0.168897084500         1.330835517025
 P 9
    1        498.433974660000         0.000854993389
    2        118.141092170000         0.006944285794
    3         38.032529735000         0.034738462975
    4         14.183731950000         0.123587099203
    5          5.786419072100         0.316550806442
    6          2.459962216000         0.554011822495
    7          1.042199949800        -2.553593173578
    8          0.429877489200         2.871618172978
    9          0.168897084500        -1.344598329717
 D 3
    1          6.471000000000         0.064465651341
    2          2.213000000000         0.333989694191
    3          0.747000000000         0.735371153173
 D 3
    1          6.471000000000         0.074174637590
    2          2.213000000000         1.139367965903
    3          0.747000000000        -1.017685046520
 D 3
    1          6.471000000000         1.340610824311
    2          2.213000000000        -1.176579852276
    3          0.747000000000         0.453774596559
 F 2
    1          4.657000000000        -0.019136527819
    2          1.524000000000         1.009675461324
 F 2
    1          4.657000000000         1.164537292406
    2          1.524000000000        -0.580576243830
 G 1
    1          2.983000000000         1.000000000000
 end
  // -----------------------------------------------
  // The basis set
  // -----------------------------------------------
  BAS[ATNO] = new BFNGauss[NSH];
  // Basis function   1 L = s
  InitBFNGauss(BAS[ATNO][  0]);
  BAS[ATNO][  0].l  = 0;
  BAS[ATNO][  0].ng = 15;
  BAS[ATNO][  0].a[  0] =    160676.279550000007;     BAS[ATNO][  0].d[  0] =         0.000077702878;
  BAS[ATNO][  0].a[  1] =     23953.195038999998;     BAS[ATNO][  0].d[  1] =         0.000542431827;
  BAS[ATNO][  0].a[  2] =      5437.506371100000;     BAS[ATNO][  0].d[  2] =         0.002743597674;
  BAS[ATNO][  0].a[  3] =      1544.274102400000;     BAS[ATNO][  0].d[  3] =         0.011154879439;
  BAS[ATNO][  0].a[  4] =       507.888142690000;     BAS[ATNO][  0].d[  4] =         0.038435035518;
  BAS[ATNO][  0].a[  5] =       184.948477500000;     BAS[ATNO][  0].d[  5] =         0.112820373811;
  BAS[ATNO][  0].a[  6] =        72.522952039000;     BAS[ATNO][  0].d[  6] =         0.270665835101;
  BAS[ATNO][  0].a[  7] =        30.088713575000;     BAS[ATNO][  0].d[  7] =         0.476569602426;
  BAS[ATNO][  0].a[  8] =       120.684349400000;     BAS[ATNO][  0].d[  8] =        -0.044536581841;
  BAS[ATNO][  0].a[  9] =        36.074294857000;     BAS[ATNO][  0].d[  9] =        -0.128819352450;
  BAS[ATNO][  0].a[ 10] =        13.052091210000;     BAS[ATNO][  0].d[ 10] =         0.308567089690;
  BAS[ATNO][  0].a[ 11] =         5.797478335300;     BAS[ATNO][  0].d[ 11] =         0.114554499479;
  BAS[ATNO][  0].a[ 12] =         2.047862689500;     BAS[ATNO][  0].d[ 12] =        -0.005250779219;
  BAS[ATNO][  0].a[ 13] =         0.802145719900;     BAS[ATNO][  0].d[ 13] =         0.003479972428;
  BAS[ATNO][  0].a[ 14] =         0.305486722000;     BAS[ATNO][  0].d[ 14] =        -0.001048411618;

  // Basis function   2 L = s
  InitBFNGauss(BAS[ATNO][  1]);
  BAS[ATNO][  1].l  = 0;
  BAS[ATNO][  1].ng = 15;
  BAS[ATNO][  1].a[  0] =    160676.279550000007;     BAS[ATNO][  1].d[  0] =        -0.000026039268;
  BAS[ATNO][  1].a[  1] =     23953.195038999998;     BAS[ATNO][  1].d[  1] =        -0.000181776118;
  BAS[ATNO][  1].a[  2] =      5437.506371100000;     BAS[ATNO][  1].d[  2] =        -0.000919416059;
  BAS[ATNO][  1].a[  3] =      1544.274102400000;     BAS[ATNO][  1].d[  3] =        -0.003738148415;
  BAS[ATNO][  1].a[  4] =       507.888142690000;     BAS[ATNO][  1].d[  4] =        -0.012880091435;
  BAS[ATNO][  1].a[  5] =       184.948477500000;     BAS[ATNO][  1].d[  5] =        -0.037807607325;
  BAS[ATNO][  1].a[  6] =        72.522952039000;     BAS[ATNO][  1].d[  6] =        -0.090703720118;
  BAS[ATNO][  1].a[  7] =        30.088713575000;     BAS[ATNO][  1].d[  7] =        -0.159704810246;
  BAS[ATNO][  1].a[  8] =       120.684349400000;     BAS[ATNO][  1].d[  8] =         0.009205627996;
  BAS[ATNO][  1].a[  9] =        36.074294857000;     BAS[ATNO][  1].d[  9] =        -0.000007043761;
  BAS[ATNO][  1].a[ 10] =        13.052091210000;     BAS[ATNO][  1].d[ 10] =        -0.248093803867;
  BAS[ATNO][  1].a[ 11] =         5.797478335300;     BAS[ATNO][  1].d[ 11] =         0.069734309668;
  BAS[ATNO][  1].a[ 12] =         2.047862689500;     BAS[ATNO][  1].d[ 12] =         0.826008957119;
  BAS[ATNO][  1].a[ 13] =         0.802145719900;     BAS[ATNO][  1].d[ 13] =         0.265591521810;
  BAS[ATNO][  1].a[ 14] =         0.305486722000;     BAS[ATNO][  1].d[ 14] =        -0.012011020769;

  // Basis function   3 L = s
  InitBFNGauss(BAS[ATNO][  2]);
  BAS[ATNO][  2].l  = 0;
  BAS[ATNO][  2].ng = 15;
  BAS[ATNO][  2].a[  0] =    160676.279550000007;     BAS[ATNO][  2].d[  0] =        -0.000013682278;
  BAS[ATNO][  2].a[  1] =     23953.195038999998;     BAS[ATNO][  2].d[  1] =        -0.000095513876;
  BAS[ATNO][  2].a[  2] =      5437.506371100000;     BAS[ATNO][  2].d[  2] =        -0.000483105220;
  BAS[ATNO][  2].a[  3] =      1544.274102400000;     BAS[ATNO][  2].d[  3] =        -0.001964202164;
  BAS[ATNO][  2].a[  4] =       507.888142690000;     BAS[ATNO][  2].d[  4] =        -0.006767816752;
  BAS[ATNO][  2].a[  5] =       184.948477500000;     BAS[ATNO][  2].d[  5] =        -0.019865927156;
  BAS[ATNO][  2].a[  6] =        72.522952039000;     BAS[ATNO][  2].d[  6] =        -0.047660077539;
  BAS[ATNO][  2].a[  7] =        30.088713575000;     BAS[ATNO][  2].d[  7] =        -0.083916554137;
  BAS[ATNO][  2].a[  8] =       120.684349400000;     BAS[ATNO][  2].d[  8] =         0.005310874197;
  BAS[ATNO][  2].a[  9] =        36.074294857000;     BAS[ATNO][  2].d[  9] =        -0.007977801874;
  BAS[ATNO][  2].a[ 10] =        13.052091210000;     BAS[ATNO][  2].d[ 10] =        -0.130018284080;
  BAS[ATNO][  2].a[ 11] =         5.797478335300;     BAS[ATNO][  2].d[ 11] =         0.006570548641;
  BAS[ATNO][  2].a[ 12] =         2.047862689500;     BAS[ATNO][  2].d[ 12] =         1.079767450128;
  BAS[ATNO][  2].a[ 13] =         0.802145719900;     BAS[ATNO][  2].d[ 13] =        -0.384492245795;
  BAS[ATNO][  2].a[ 14] =         0.305486722000;     BAS[ATNO][  2].d[ 14] =        -0.999513367941;

  // Basis function   4 L = s
  InitBFNGauss(BAS[ATNO][  3]);
  BAS[ATNO][  3].l  = 0;
  BAS[ATNO][  3].ng = 15;
  BAS[ATNO][  3].a[  0] =    160676.279550000007;     BAS[ATNO][  3].d[  0] =         0.000015818208;
  BAS[ATNO][  3].a[  1] =     23953.195038999998;     BAS[ATNO][  3].d[  1] =         0.000110424477;
  BAS[ATNO][  3].a[  2] =      5437.506371100000;     BAS[ATNO][  3].d[  2] =         0.000558522422;
  BAS[ATNO][  3].a[  3] =      1544.274102400000;     BAS[ATNO][  3].d[  3] =         0.002270832323;
  BAS[ATNO][  3].a[  4] =       507.888142690000;     BAS[ATNO][  3].d[  4] =         0.007824335662;
  BAS[ATNO][  3].a[  5] =       184.948477500000;     BAS[ATNO][  3].d[  5] =         0.022967182476;
  BAS[ATNO][  3].a[  6] =        72.522952039000;     BAS[ATNO][  3].d[  6] =         0.055100257293;
  BAS[ATNO][  3].a[  7] =        30.088713575000;     BAS[ATNO][  3].d[  7] =         0.097016705864;
  BAS[ATNO][  3].a[  8] =       120.684349400000;     BAS[ATNO][  3].d[  8] =        -0.011132529570;
  BAS[ATNO][  3].a[  9] =        36.074294857000;     BAS[ATNO][  3].d[  9] =         0.030842447198;
  BAS[ATNO][  3].a[ 10] =        13.052091210000;     BAS[ATNO][  3].d[ 10] =         0.045071807594;
  BAS[ATNO][  3].a[ 11] =         5.797478335300;     BAS[ATNO][  3].d[ 11] =         0.280092640580;
  BAS[ATNO][  3].a[ 12] =         2.047862689500;     BAS[ATNO][  3].d[ 12] =        -2.615734423167;
  BAS[ATNO][  3].a[ 13] =         0.802145719900;     BAS[ATNO][  3].d[ 13] =         4.096992195287;
  BAS[ATNO][  3].a[ 14] =         0.305486722000;     BAS[ATNO][  3].d[ 14] =        -2.233072029354;

  // Basis function   5 L = s
  InitBFNGauss(BAS[ATNO][  4]);
  BAS[ATNO][  4].l  = 0;
  BAS[ATNO][  4].ng = 15;
  BAS[ATNO][  4].a[  0] =    160676.279550000007;     BAS[ATNO][  4].d[  0] =         0.000030716475;
  BAS[ATNO][  4].a[  1] =     23953.195038999998;     BAS[ATNO][  4].d[  1] =         0.000214426979;
  BAS[ATNO][  4].a[  2] =      5437.506371100000;     BAS[ATNO][  4].d[  2] =         0.001084562760;
  BAS[ATNO][  4].a[  3] =      1544.274102400000;     BAS[ATNO][  4].d[  3] =         0.004409599462;
  BAS[ATNO][  4].a[  4] =       507.888142690000;     BAS[ATNO][  4].d[  4] =         0.015193630095;
  BAS[ATNO][  4].a[  5] =       184.948477500000;     BAS[ATNO][  4].d[  5] =         0.044598658588;
  BAS[ATNO][  4].a[  6] =        72.522952039000;     BAS[ATNO][  4].d[  6] =         0.106996039486;
  BAS[ATNO][  4].a[  7] =        30.088713575000;     BAS[ATNO][  4].d[  7] =         0.188391194551;
  BAS[ATNO][  4].a[  8] =       120.684349400000;     BAS[ATNO][  4].d[  8] =         0.051609884420;
  BAS[ATNO][  4].a[  9] =        36.074294857000;     BAS[ATNO][  4].d[  9] =        -0.192809163601;
  BAS[ATNO][  4].a[ 10] =        13.052091210000;     BAS[ATNO][  4].d[ 10] =         1.977654407862;
  BAS[ATNO][  4].a[ 11] =         5.797478335300;     BAS[ATNO][  4].d[ 11] =        -4.836175254217;
  BAS[ATNO][  4].a[ 12] =         2.047862689500;     BAS[ATNO][  4].d[ 12] =         4.956471621513;
  BAS[ATNO][  4].a[ 13] =         0.802145719900;     BAS[ATNO][  4].d[ 13] =        -3.125886300955;
  BAS[ATNO][  4].a[ 14] =         0.305486722000;     BAS[ATNO][  4].d[ 14] =         0.970057875194;

  // Basis function   6 L = s
  InitBFNGauss(BAS[ATNO][  5]);
  BAS[ATNO][  5].l  = 0;
  BAS[ATNO][  5].ng = 15;
  BAS[ATNO][  5].a[  0] =    160676.279550000007;     BAS[ATNO][  5].d[  0] =        -0.000095210079;
  BAS[ATNO][  5].a[  1] =     23953.195038999998;     BAS[ATNO][  5].d[  1] =        -0.000664646901;
  BAS[ATNO][  5].a[  2] =      5437.506371100000;     BAS[ATNO][  5].d[  2] =        -0.003361756445;
  BAS[ATNO][  5].a[  3] =      1544.274102400000;     BAS[ATNO][  5].d[  3] =        -0.013668180364;
  BAS[ATNO][  5].a[  4] =       507.888142690000;     BAS[ATNO][  5].d[  4] =        -0.047094816273;
  BAS[ATNO][  5].a[  5] =       184.948477500000;     BAS[ATNO][  5].d[  5] =        -0.138239882046;
  BAS[ATNO][  5].a[  6] =        72.522952039000;     BAS[ATNO][  5].d[  6] =        -0.331649434000;
  BAS[ATNO][  5].a[  7] =        30.088713575000;     BAS[ATNO][  5].d[  7] =        -0.583945287543;
  BAS[ATNO][  5].a[  8] =       120.684349400000;     BAS[ATNO][  5].d[  8] =         0.265310471156;
  BAS[ATNO][  5].a[  9] =        36.074294857000;     BAS[ATNO][  5].d[  9] =        -1.591137090142;
  BAS[ATNO][  5].a[ 10] =        13.052091210000;     BAS[ATNO][  5].d[ 10] =         5.692251591107;
  BAS[ATNO][  5].a[ 11] =         5.797478335300;     BAS[ATNO][  5].d[ 11] =        -5.303362902673;
  BAS[ATNO][  5].a[ 12] =         2.047862689500;     BAS[ATNO][  5].d[ 12] =         2.884657956860;
  BAS[ATNO][  5].a[ 13] =         0.802145719900;     BAS[ATNO][  5].d[ 13] =        -1.433494527182;
  BAS[ATNO][  5].a[ 14] =         0.305486722000;     BAS[ATNO][  5].d[ 14] =         0.410864851308;

  // Basis function   7 L = s
  InitBFNGauss(BAS[ATNO][  6]);
  BAS[ATNO][  6].l  = 0;
  BAS[ATNO][  6].ng = 15;
  BAS[ATNO][  6].a[  0] =    160676.279550000007;     BAS[ATNO][  6].d[  0] =        -0.000055754578;
  BAS[ATNO][  6].a[  1] =     23953.195038999998;     BAS[ATNO][  6].d[  1] =        -0.000389214126;
  BAS[ATNO][  6].a[  2] =      5437.506371100000;     BAS[ATNO][  6].d[  2] =        -0.001968628897;
  BAS[ATNO][  6].a[  3] =      1544.274102400000;     BAS[ATNO][  6].d[  3] =        -0.008004022682;
  BAS[ATNO][  6].a[  4] =       507.888142690000;     BAS[ATNO][  6].d[  4] =        -0.027578504791;
  BAS[ATNO][  6].a[  5] =       184.948477500000;     BAS[ATNO][  6].d[  5] =        -0.080952630270;
  BAS[ATNO][  6].a[  6] =        72.522952039000;     BAS[ATNO][  6].d[  6] =        -0.194212361964;
  BAS[ATNO][  6].a[  7] =        30.088713575000;     BAS[ATNO][  6].d[  7] =        -0.341955637264;
  BAS[ATNO][  6].a[  8] =       120.684349400000;     BAS[ATNO][  6].d[  8] =        -1.778067985194;
  BAS[ATNO][  6].a[  9] =        36.074294857000;     BAS[ATNO][  6].d[  9] =         4.109073156343;
  BAS[ATNO][  6].a[ 10] =        13.052091210000;     BAS[ATNO][  6].d[ 10] =        -3.927632228046;
  BAS[ATNO][  6].a[ 11] =         5.797478335300;     BAS[ATNO][  6].d[ 11] =         2.739009665208;
  BAS[ATNO][  6].a[ 12] =         2.047862689500;     BAS[ATNO][  6].d[ 12] =        -1.313799192859;
  BAS[ATNO][  6].a[ 13] =         0.802145719900;     BAS[ATNO][  6].d[ 13] =         0.643029195814;
  BAS[ATNO][  6].a[ 14] =         0.305486722000;     BAS[ATNO][  6].d[ 14] =        -0.185161786151;

  // Basis function   8 L = s
  InitBFNGauss(BAS[ATNO][  7]);
  BAS[ATNO][  7].l  = 0;
  BAS[ATNO][  7].ng = 15;
  BAS[ATNO][  7].a[  0] =    160676.279550000007;     BAS[ATNO][  7].d[  0] =        -0.001884199062;
  BAS[ATNO][  7].a[  1] =     23953.195038999998;     BAS[ATNO][  7].d[  1] =        -0.013153303473;
  BAS[ATNO][  7].a[  2] =      5437.506371100000;     BAS[ATNO][  7].d[  2] =        -0.066528863146;
  BAS[ATNO][  7].a[  3] =      1544.274102400000;     BAS[ATNO][  7].d[  3] =        -0.270492082256;
  BAS[ATNO][  7].a[  4] =       507.888142690000;     BAS[ATNO][  7].d[  4] =        -0.932002254746;
  BAS[ATNO][  7].a[  5] =       184.948477500000;     BAS[ATNO][  7].d[  5] =        -2.735755056700;
  BAS[ATNO][  7].a[  6] =        72.522952039000;     BAS[ATNO][  7].d[  6] =        -6.563313008454;
  BAS[ATNO][  7].a[  7] =        30.088713575000;     BAS[ATNO][  7].d[  7] =       -11.556225667967;
  BAS[ATNO][  7].a[  8] =       120.684349400000;     BAS[ATNO][  7].d[  8] =         7.874207581157;
  BAS[ATNO][  7].a[  9] =        36.074294857000;     BAS[ATNO][  7].d[  9] =        11.713595166069;
  BAS[ATNO][  7].a[ 10] =        13.052091210000;     BAS[ATNO][  7].d[ 10] =         3.156747229007;
  BAS[ATNO][  7].a[ 11] =         5.797478335300;     BAS[ATNO][  7].d[ 11] =        -1.656391195309;
  BAS[ATNO][  7].a[ 12] =         2.047862689500;     BAS[ATNO][  7].d[ 12] =         0.739233706732;
  BAS[ATNO][  7].a[ 13] =         0.802145719900;     BAS[ATNO][  7].d[ 13] =        -0.358264435376;
  BAS[ATNO][  7].a[ 14] =         0.305486722000;     BAS[ATNO][  7].d[ 14] =         0.103089876560;

  // Basis function   9 L = p
  InitBFNGauss(BAS[ATNO][  8]);
  BAS[ATNO][  8].l  = 1;
  BAS[ATNO][  8].ng = 9;
  BAS[ATNO][  8].a[  0] =       498.433974660000;     BAS[ATNO][  8].d[  0] =         0.000852910076;
  BAS[ATNO][  8].a[  1] =       118.141092170000;     BAS[ATNO][  8].d[  1] =         0.006927365057;
  BAS[ATNO][  8].a[  2] =        38.032529735000;     BAS[ATNO][  8].d[  2] =         0.034653817780;
  BAS[ATNO][  8].a[  3] =        14.183731950000;     BAS[ATNO][  8].d[  3] =         0.123285961697;
  BAS[ATNO][  8].a[  4] =         5.786419072100;     BAS[ATNO][  8].d[  4] =         0.315779485480;
  BAS[ATNO][  8].a[  5] =         2.459962216000;     BAS[ATNO][  8].d[  5] =         0.552661894069;
  BAS[ATNO][  8].a[  6] =         1.042199949800;     BAS[ATNO][  8].d[  6] =         0.094940578500;
  BAS[ATNO][  8].a[  7] =         0.429877489200;     BAS[ATNO][  8].d[  7] =         0.049116039815;
  BAS[ATNO][  8].a[  8] =         0.168897084500;     BAS[ATNO][  8].d[  8] =        -0.015925669938;

  // Basis function  10 L = p
  InitBFNGauss(BAS[ATNO][  9]);
  BAS[ATNO][  9].l  = 1;
  BAS[ATNO][  9].ng = 9;
  BAS[ATNO][  9].a[  0] =       498.433974660000;     BAS[ATNO][  9].d[  0] =        -0.000572004250;
  BAS[ATNO][  9].a[  1] =       118.141092170000;     BAS[ATNO][  9].d[  1] =        -0.004645838247;
  BAS[ATNO][  9].a[  2] =        38.032529735000;     BAS[ATNO][  9].d[  2] =        -0.023240587255;
  BAS[ATNO][  9].a[  3] =        14.183731950000;     BAS[ATNO][  9].d[  3] =        -0.082681745728;
  BAS[ATNO][  9].a[  4] =         5.786419072100;     BAS[ATNO][  9].d[  4] =        -0.211777551680;
  BAS[ATNO][  9].a[  5] =         2.459962216000;     BAS[ATNO][  9].d[  5] =        -0.370642768813;
  BAS[ATNO][  9].a[  6] =         1.042199949800;     BAS[ATNO][  9].d[  6] =         0.397835332208;
  BAS[ATNO][  9].a[  7] =         0.429877489200;     BAS[ATNO][  9].d[  7] =         0.763019045083;
  BAS[ATNO][  9].a[  8] =         0.168897084500;     BAS[ATNO][  9].d[  8] =         0.025520485831;

  // Basis function  11 L = p
  InitBFNGauss(BAS[ATNO][ 10]);
  BAS[ATNO][ 10].l  = 1;
  BAS[ATNO][ 10].ng = 9;
  BAS[ATNO][ 10].a[  0] =       498.433974660000;     BAS[ATNO][ 10].d[  0] =         0.000404520337;
  BAS[ATNO][ 10].a[  1] =       118.141092170000;     BAS[ATNO][ 10].d[  1] =         0.003285528129;
  BAS[ATNO][ 10].a[  2] =        38.032529735000;     BAS[ATNO][ 10].d[  2] =         0.016435699889;
  BAS[ATNO][ 10].a[  3] =        14.183731950000;     BAS[ATNO][ 10].d[  3] =         0.058472376112;
  BAS[ATNO][ 10].a[  4] =         5.786419072100;     BAS[ATNO][ 10].d[  4] =         0.149768688902;
  BAS[ATNO][ 10].a[  5] =         2.459962216000;     BAS[ATNO][ 10].d[  5] =         0.262117873665;
  BAS[ATNO][ 10].a[  6] =         1.042199949800;     BAS[ATNO][ 10].d[  6] =        -0.572256967854;
  BAS[ATNO][ 10].a[  7] =         0.429877489200;     BAS[ATNO][ 10].d[  7] =        -0.597695404597;
  BAS[ATNO][ 10].a[  8] =         0.168897084500;     BAS[ATNO][ 10].d[  8] =         1.330835517025;

  // Basis function  12 L = p
  InitBFNGauss(BAS[ATNO][ 11]);
  BAS[ATNO][ 11].l  = 1;
  BAS[ATNO][ 11].ng = 9;
  BAS[ATNO][ 11].a[  0] =       498.433974660000;     BAS[ATNO][ 11].d[  0] =         0.000854993389;
  BAS[ATNO][ 11].a[  1] =       118.141092170000;     BAS[ATNO][ 11].d[  1] =         0.006944285794;
  BAS[ATNO][ 11].a[  2] =        38.032529735000;     BAS[ATNO][ 11].d[  2] =         0.034738462975;
  BAS[ATNO][ 11].a[  3] =        14.183731950000;     BAS[ATNO][ 11].d[  3] =         0.123587099203;
  BAS[ATNO][ 11].a[  4] =         5.786419072100;     BAS[ATNO][ 11].d[  4] =         0.316550806442;
  BAS[ATNO][ 11].a[  5] =         2.459962216000;     BAS[ATNO][ 11].d[  5] =         0.554011822495;
  BAS[ATNO][ 11].a[  6] =         1.042199949800;     BAS[ATNO][ 11].d[  6] =        -2.553593173578;
  BAS[ATNO][ 11].a[  7] =         0.429877489200;     BAS[ATNO][ 11].d[  7] =         2.871618172978;
  BAS[ATNO][ 11].a[  8] =         0.168897084500;     BAS[ATNO][ 11].d[  8] =        -1.344598329717;

  // Basis function  13 L = d
  InitBFNGauss(BAS[ATNO][ 12]);
  BAS[ATNO][ 12].l  = 2;
  BAS[ATNO][ 12].ng = 3;
  BAS[ATNO][ 12].a[  0] =         6.471000000000;     BAS[ATNO][ 12].d[  0] =         0.064465651341;
  BAS[ATNO][ 12].a[  1] =         2.213000000000;     BAS[ATNO][ 12].d[  1] =         0.333989694191;
  BAS[ATNO][ 12].a[  2] =         0.747000000000;     BAS[ATNO][ 12].d[  2] =         0.735371153173;

  // Basis function  14 L = d
  InitBFNGauss(BAS[ATNO][ 13]);
  BAS[ATNO][ 13].l  = 2;
  BAS[ATNO][ 13].ng = 3;
  BAS[ATNO][ 13].a[  0] =         6.471000000000;     BAS[ATNO][ 13].d[  0] =         0.074174637590;
  BAS[ATNO][ 13].a[  1] =         2.213000000000;     BAS[ATNO][ 13].d[  1] =         1.139367965903;
  BAS[ATNO][ 13].a[  2] =         0.747000000000;     BAS[ATNO][ 13].d[  2] =        -1.017685046520;

  // Basis function  15 L = d
  InitBFNGauss(BAS[ATNO][ 14]);
  BAS[ATNO][ 14].l  = 2;
  BAS[ATNO][ 14].ng = 3;
  BAS[ATNO][ 14].a[  0] =         6.471000000000;     BAS[ATNO][ 14].d[  0] =         1.340610824311;
  BAS[ATNO][ 14].a[  1] =         2.213000000000;     BAS[ATNO][ 14].d[  1] =        -1.176579852276;
  BAS[ATNO][ 14].a[  2] =         0.747000000000;     BAS[ATNO][ 14].d[  2] =         0.453774596559;

  // Basis function  16 L = f
  InitBFNGauss(BAS[ATNO][ 15]);
  BAS[ATNO][ 15].l  = 3;
  BAS[ATNO][ 15].ng = 2;
  BAS[ATNO][ 15].a[  0] =         4.657000000000;     BAS[ATNO][ 15].d[  0] =        -0.019136527819;
  BAS[ATNO][ 15].a[  1] =         1.524000000000;     BAS[ATNO][ 15].d[  1] =         1.009675461324;

  // Basis function  17 L = f
  InitBFNGauss(BAS[ATNO][ 16]);
  BAS[ATNO][ 16].l  = 3;
  BAS[ATNO][ 16].ng = 2;
  BAS[ATNO][ 16].a[  0] =         4.657000000000;     BAS[ATNO][ 16].d[  0] =         1.164537292406;
  BAS[ATNO][ 16].a[  1] =         1.524000000000;     BAS[ATNO][ 16].d[  1] =        -0.580576243830;

  // Basis function  18 L = g
  InitBFNGauss(BAS[ATNO][ 17]);
  BAS[ATNO][ 17].l  = 4;
  BAS[ATNO][ 17].ng = 1;
  BAS[ATNO][ 17].a[  0] =         2.983000000000;     BAS[ATNO][ 17].d[  0] =         1.000000000000;

-------
TIMINGS
-------

Total SCF time: 0 days 0 hours 0 min 1 sec 

Total time                  ....       1.357 sec
Sum of individual times     ....       1.188 sec  ( 87.5%)

Fock matrix formation       ....       0.766 sec  ( 56.5%)
  XC integration            ....       0.017 sec  (  2.3% of F)
    Basis function eval.    ....       0.003 sec  ( 14.6% of XC)
    Density eval.           ....       0.001 sec  (  7.3% of XC)
    XC-Functional eval.     ....       0.001 sec  (  7.2% of XC)
    XC-Potential eval.      ....       0.002 sec  (  9.7% of XC)
Diagonalization             ....       0.001 sec  (  0.1%)
Density matrix formation    ....       0.001 sec  (  0.0%)
Population analysis         ....       0.001 sec  (  0.1%)
Initial guess               ....       0.095 sec  (  7.0%)
Orbital Transformation      ....       0.000 sec  (  0.0%)
Orbital Orthonormalization  ....       0.000 sec  (  0.0%)
DIIS solution               ....       0.000 sec  (  0.0%)
SOSCF solution              ....       0.001 sec  (  0.1%)
Grid generation             ....       0.323 sec  ( 23.8%)

-------------------------   --------------------
FINAL SINGLE POINT ENERGY       -97.299636474069
-------------------------   --------------------


                            ***************************************
                            *     ORCA property calculations      *
                            ***************************************

                                    ---------------------
                                    Active property flags
                                    ---------------------
   (+) Dipole Moment


------------------------------------------------------------------------------
                       ORCA ELECTRIC PROPERTIES CALCULATION
------------------------------------------------------------------------------

Dipole Moment Calculation                       ... on
Quadrupole Moment Calculation                   ... off
Polarizability Calculation                      ... off
GBWName                                         ... Ne_zora-def2-qzvpp_34.25899725_.gbw
Electron density file                           ... Ne_zora-def2-qzvpp_34.25899725_.scfp
The origin for moment calculation is the CENTER OF MASS  = ( 0.000000,  0.000000  0.000000)

-------------
DIPOLE MOMENT
-------------
                                X             Y             Z
Electronic contribution:      0.00000      -0.00000       0.00000
Nuclear contribution   :      0.00000       0.00000       0.00000
                        -----------------------------------------
Total Dipole Moment    :      0.00000      -0.00000       0.00000
                        -----------------------------------------
Magnitude (a.u.)       :      0.00000
Magnitude (Debye)      :      0.00000



--------------------
Rotational spectrum 
--------------------
 
Rotational constants in cm-1:     0.000000     0.000000     0.000000 
Rotational constants in MHz :     0.000000     0.000000     0.000000 

 Dipole components along the rotational axes: 
x,y,z [a.u.] :     0.000000    -0.000000     0.000000 
x,y,z [Debye]:     0.000000    -0.000000     0.000000 

 

Timings for individual modules:

Sum of individual times         ...        2.507 sec (=   0.042 min)
GTO integral calculation        ...        0.505 sec (=   0.008 min)  20.1 %
Relativistic integrals          ...        0.353 sec (=   0.006 min)  14.1 %
SCF iterations                  ...        1.649 sec (=   0.027 min)  65.8 %
                             ****ORCA TERMINATED NORMALLY****
TOTAL RUN TIME: 0 days 0 hours 0 minutes 2 seconds 824 msec
