
                                 *****************
                                 * O   R   C   A *
                                 *****************

           --- An Ab Initio, DFT and Semiempirical electronic structure package ---

                  #######################################################
                  #                        -***-                        #
                  #          Department of theory and spectroscopy      #
                  #               Directorship: Frank Neese             #
                  #        Max Planck Institute fuer Kohlenforschung    #
                  #                Kaiser Wilhelm Platz 1               #
                  #                 D-45470 Muelheim/Ruhr               #
                  #                      Germany                        #
                  #                                                     #
                  #                  All rights reserved                #
                  #                        -***-                        #
                  #######################################################


                         Program Version 4.2.1 -  RELEASE  -


 With contributions from (in alphabetic order):
   Daniel Aravena         : Magnetic Suceptibility
   Michael Atanasov       : Ab Initio Ligand Field Theory (pilot matlab implementation)
   Alexander A. Auer      : GIAO ZORA, VPT2
   Ute Becker             : Parallelization
   Giovanni Bistoni       : ED, misc. LED, open-shell LED, HFLD
   Martin Brehm           : Molecular dynamics
   Dmytro Bykov           : SCF Hessian
   Vijay G. Chilkuri      : MRCI spin determinant printing, contributions to CSF-ICE
   Dipayan Datta          : RHF DLPNO-CCSD density
   Achintya Kumar Dutta   : EOM-CC, STEOM-CC
   Dmitry Ganyushin       : Spin-Orbit,Spin-Spin,Magnetic field MRCI
   Miquel Garcia          : C-PCM Hessian, Gaussian charge scheme
   Yang Guo               : DLPNO-NEVPT2, CIM, IAO-localization
   Andreas Hansen         : Spin unrestricted coupled pair/coupled cluster methods
   Benjamin Helmich-Paris : CASSCF linear response (MC-RPA)
   Lee Huntington         : MR-EOM, pCC
   Robert Izsak           : Overlap fitted RIJCOSX, COSX-SCS-MP3, EOM
   Christian Kollmar      : KDIIS, OOCD, Brueckner-CCSD(T), CCSD density
   Simone Kossmann        : Meta GGA functionals, TD-DFT gradient, OOMP2, MP2 Hessian
   Martin Krupicka        : AUTO-CI
   Lucas Lang             : DCDCAS
   Dagmar Lenk            : GEPOL surface, SMD
   Dimitrios Liakos       : Extrapolation schemes; Compound Job, initial MDCI parallelization
   Dimitrios Manganas     : Further ROCIS development; embedding schemes
   Dimitrios Pantazis     : SARC Basis sets
   Taras Petrenko         : DFT Hessian,TD-DFT gradient, ASA, ECA, R-Raman, ABS, FL, XAS/XES, NRVS
   Peter Pinski           : DLPNO-MP2, DLPNO-MP2 Gradient
   Christoph Reimann      : Effective Core Potentials
   Marius Retegan         : Local ZFS, SOC
   Christoph Riplinger    : Optimizer, TS searches, QM/MM, DLPNO-CCSD(T), (RO)-DLPNO pert. Triples
   Tobias Risthaus        : Range-separated hybrids, TD-DFT gradient, RPA, STAB
   Michael Roemelt        : Original ROCIS implementation
   Masaaki Saitow         : Open-shell DLPNO-CCSD energy and density
   Barbara Sandhoefer     : DKH picture change effects
   Avijit Sen             : IP-ROCIS
   Kantharuban Sivalingam : CASSCF convergence, NEVPT2, FIC-MRCI
   Bernardo de Souza      : ESD, SOC TD-DFT
   Georgi Stoychev        : AutoAux, RI-MP2 NMR
   Willem Van den Heuvel  : Paramagnetic NMR
   Boris Wezisla          : Elementary symmetry handling
   Frank Wennmohs         : Technical directorship


 We gratefully acknowledge several colleagues who have allowed us to
 interface, adapt or use parts of their codes:
   Stefan Grimme, W. Hujo, H. Kruse,             : VdW corrections, initial TS optimization,
                  C. Bannwarth                     DFT functionals, gCP, sTDA/sTD-DF
   Ed Valeev, F. Pavosevic, A. Kumar             : LibInt (2-el integral package), F12 methods
   Garnet Chan, S. Sharma, J. Yang, R. Olivares  : DMRG
   Ulf Ekstrom                                   : XCFun DFT Library
   Mihaly Kallay                                 : mrcc  (arbitrary order and MRCC methods)
   Andreas Klamt, Michael Diedenhofen            : otool_cosmo (COSMO solvation model)
   Jiri Pittner, Ondrej Demel                    : Mk-CCSD
   Frank Weinhold                                : gennbo (NPA and NBO analysis)
   Christopher J. Cramer and Donald G. Truhlar   : smd solvation model
   Lars Goerigk                                  : TD-DFT with DH, B97 family of functionals
   V. Asgeirsson, H. Jonsson                     : NEB implementation
   FAccTs GmbH                                   : IRC, NEB, NEB-TS, Multilevel, MM, QM/MM, CI optimization
   S Lehtola, MJT Oliveira, MAL Marques          : LibXC Library


 Your calculation uses the libint2 library for the computation of 2-el integrals
 For citations please refer to: http://libint.valeyev.net

 Your ORCA version has been built with support for libXC version: 4.2.3
 For citations please refer to: https://tddft.org/programs/libxc/

 This ORCA versions uses:
   CBLAS   interface :  Fast vector & matrix operations
   LAPACKE interface :  Fast linear algebra routines
   SCALAPACK package :  Parallel linear algebra routines


----- Orbital basis set information -----
Your calculation utilizes the basis: ZORA-def2-TZVP 
   Exponents from def2-TZVP [F. Weigend and R. Ahlrichs, Phys. Chem. Chem. Phys. 7, 3297 (2005)],
   recontracted for ZORA by D. A. Pantazis.

================================================================================
                                        WARNINGS
                       Please study these warnings very carefully!
================================================================================


INFO   : the flag for use of LIBINT has been found!

================================================================================
                                       INPUT FILE
================================================================================
NAME = Ne_zora-def2-tzvp_4385.151648_.inp
|  1> ! LDA zora-def2-tzvp nori grid5 finalgrid6 verytightscf
|  2> %Pal NProcs 18 End
|  3> 
|  4> % REL
|  5>   Method ZORA
|  6>   ModelPot 1, 0, 0, 0
|  7>   velit 4385.151648
|  8> END
|  9> 
| 10> *xyz 8 1
| 11> Ne 0.0 0.0 0.0
| 12> **                         ****END OF INPUT****
================================================================================

                       ****************************
                       * Single Point Calculation *
                       ****************************

---------------------------------
CARTESIAN COORDINATES (ANGSTROEM)
---------------------------------
  Ne     0.000000    0.000000    0.000000

----------------------------
CARTESIAN COORDINATES (A.U.)
----------------------------
  NO LB      ZA    FRAG     MASS         X           Y           Z
   0 Ne   10.0000    0    20.179    0.000000    0.000000    0.000000

--------------------------------
INTERNAL COORDINATES (ANGSTROEM)
--------------------------------
 Ne     0   0   0     0.000000000000     0.00000000     0.00000000

---------------------------
INTERNAL COORDINATES (A.U.)
---------------------------
 Ne     0   0   0     0.000000000000     0.00000000     0.00000000

---------------------
BASIS SET INFORMATION
---------------------
There are 1 groups of distinct atoms

 Group   1 Type Ne  : 11s6p2d1f contracted to 6s3p2d1f pattern {611111/411/11/1}

Atom   0Ne   basis set group =>   1


           ************************************************************
           *        Program running with 18 parallel MPI-processes    *
           *              working on a common directory               *
           ************************************************************
------------------------------------------------------------------------------
                           ORCA GTO INTEGRAL CALCULATION
------------------------------------------------------------------------------

                         BASIS SET STATISTICS AND STARTUP INFO

 # of primitive gaussian shells          ...   20
 # of primitive gaussian functions       ...   46
 # of contracted shells                  ...   12
 # of contracted basis functions         ...   32
 Highest angular momentum                ...    3
 Maximum contraction depth               ...    6
 Integral package used                   ... LIBINT
 Integral threshhold            Thresh   ...  1.000e-12
 Primitive cut-off              TCut     ...  1.000e-14


------------------------------ INTEGRAL EVALUATION ----------------------------


 * One electron integrals 
 Pre-screening matrix                    ... done
 Shell pair data                         ... done (   0.000 sec)



           ************************************************************
           *        Program running with 18 parallel MPI-processes    *
           *              working on a common directory               *
           ************************************************************
------------------------------------------------------------------------------
                          ORCA RELATIVISTIC HAMILTONIAN
------------------------------------------------------------------------------

Relativistic Method            ... ZORA(MP)
Treatment of potential         ... Van Wuellen
Nucleus model                  ... Point Nucleus
Speed of light used            ... 4385.15164800000002


            *************************************************
            *         ZERO ORDER REGULAR APPROXIMATION      *
            *                     ZORA(MP)                  *
            *            Programmed by FN according to      *
            *                   C. van Wuellen              *
            *       J. Chem. Phys. (1998) vol 109, 392-399  *
            *************************************************

Terms included in model potential: +V(e,N)
Basis function cutoff value   ... 1.000000e-12
Loading the fitted atomic densities  (DKH4)  ... done
Calculating the cutoffs                      ... done
Number of fit functions                      ... 11
Setting up the integration grid ... done


           ************************************************************
           *        Program running with 18 parallel MPI-processes    *
           *              working on a common directory               *
           ************************************************************
-------------------------------------------------------------------------------
                                 ORCA SCF
-------------------------------------------------------------------------------

------------
SCF SETTINGS
------------
Hamiltonian:
 Density Functional     Method          .... DFT(GTOs)
 Exchange Functional    Exchange        .... Slater
   X-Alpha parameter    XAlpha          ....  0.666667
 Correlation Functional Correlation     .... VWN-5
 Gradients option       PostSCFGGA      .... off
   Density functional embedding theory  .... OFF

Relativistic Settings:
 Scalar relativistic method             .... ZORA
 Speed of light used       Velit        ....       4385.15165
Orbital energies will be scaled


General Settings:
 Integral files         IntName         .... Ne_zora-def2-tzvp_4385.151648_
 Hartree-Fock type      HFTyp           .... RHF
 Total Charge           Charge          ....    8
 Multiplicity           Mult            ....    1
 Number of Electrons    NEL             ....    2
 Basis Dimension        Dim             ....   32
 Nuclear Repulsion      ENuc            ....      0.0000000000 Eh

Convergence Acceleration:
 DIIS                   CNVDIIS         .... on
   Start iteration      DIISMaxIt       ....    12
   Startup error        DIISStart       ....  0.200000
   # of expansion vecs  DIISMaxEq       ....     5
   Bias factor          DIISBfac        ....   1.050
   Max. coefficient     DIISMaxC        ....  10.000
 Newton-Raphson         CNVNR           .... off
 SOSCF                  CNVSOSCF        .... on
   Start iteration      SOSCFMaxIt      ....   150
   Startup grad/error   SOSCFStart      ....  0.003300
 Level Shifting         CNVShift        .... on
   Level shift para.    LevelShift      ....    0.2500
   Turn off err/grad.   ShiftErr        ....    0.0010
 Zerner damping         CNVZerner       .... off
 Static damping         CNVDamp         .... on
   Fraction old density DampFac         ....    0.7000
   Max. Damping (<1)    DampMax         ....    0.9800
   Min. Damping (>=0)   DampMin         ....    0.0000
   Turn off err/grad.   DampErr         ....    0.1000
 Fernandez-Rico         CNVRico         .... off

SCF Procedure:
 Maximum # iterations   MaxIter         ....   125
 SCF integral mode      SCFMode         .... Direct
   Integral package                     .... LIBINT
 Reset frequency        DirectResetFreq ....    20
 Integral Threshold     Thresh          ....  1.000e-12 Eh
 Primitive CutOff       TCut            ....  1.000e-14 Eh

Convergence Tolerance:
 Convergence Check Mode ConvCheckMode   .... Total+1el-Energy
 Convergence forced     ConvForced      .... 0
 Energy Change          TolE            ....  1.000e-09 Eh
 1-El. energy change                    ....  1.000e-06 Eh
 Orbital Gradient       TolG            ....  2.000e-06
 Orbital Rotation angle TolX            ....  2.000e-06
 DIIS Error             TolErr          ....  1.000e-08


Diagonalization of the overlap matrix:
Smallest eigenvalue                        ... 1.735e-02
Time for diagonalization                   ...    0.000 sec
Threshold for overlap eigenvalues          ... 1.000e-08
Number of eigenvalues below threshold      ... 0
Time for construction of square roots      ...    0.001 sec
Total time needed                          ...    0.002 sec

-------------------
DFT GRID GENERATION
-------------------

General Integration Accuracy     IntAcc      ...  5.010
Radial Grid Type                 RadialGrid  ... Gauss-Chebyshev
Angular Grid (max. acc.)         AngularGrid ... Lebedev-434
Angular grid pruning method      GridPruning ... 3 (G Style)
Weight generation scheme         WeightScheme... Becke
Basis function cutoff            BFCut       ...    1.0000e-12
Integration weight cutoff        WCut        ...    1.0000e-14
Grids for H and He will be reduced by one unit

# of grid points (after initial pruning)     ...  10818 (   0.0 sec)
# of grid points (after weights+screening)   ...  10818 (   0.0 sec)
Grid point division into batches done        ...    0.1 sec
Reduced shell lists constructed in    0.1 sec

Total number of grid points                  ...    10818
Total number of batches                      ...      170
Average number of points per batch           ...       63
Average number of grid points per atom       ...    10818
Average number of shells per batch           ...     0.00 ( 0.00%)
Average number of basis functions per batch  ...     0.00 ( 0.00%)
Average number of large shells per batch     ...     0.00 ( -nan%)
Average number of large basis fcns per batch ...     0.00 ( -nan%)
Maximum spatial batch extension              ...  16.29, 16.29, 16.29 au
Average spatial batch extension              ...   0.85,  0.86,  0.85 au

Time for grid setup =    0.133 sec

------------------------------
INITIAL GUESS: MODEL POTENTIAL
------------------------------
Loading ZORA relativistic densities                ... done
Calculating cut-offs                               ... done
Setting up the integral package                    ... done
Initializing the effective Hamiltonian             ... done
Starting the Coulomb interaction                   ... done (   0.0 sec)
Reading the grid                                   ... done
Mapping shells                                     ... done
Starting the XC term evaluation                    ... done (   0.0 sec)
  promolecular density results
     # of electrons  =     10.000000334
     EX              =    -11.053709298
     EC              =     -0.746638772
     EX+EC           =    -11.800348070
Transforming the Hamiltonian                       ... done (   0.0 sec)
Diagonalizing the Hamiltonian                      ... done (   0.0 sec)
Back transforming the eigenvectors                 ... done (   0.0 sec)
Now organizing SCF variables                       ... done
                      ------------------
                      INITIAL GUESS DONE (   0.2 sec)
                      ------------------
--------------
SCF ITERATIONS
--------------
ITER       Energy         Delta-E        Max-DP      RMS-DP      [F,P]     Damp
               ***  Starting incremental Fock matrix formation  ***
  0    -93.1991120236   0.000000000000 0.00514663  0.00028547  0.8356697 0.7000
  1    -93.2030100344  -0.003898010794 0.00360733  0.00019891  0.5706328 0.7000
  2    -93.2056803647  -0.002670330321 0.00250637  0.00013737  0.3885594 0.7000
  3    -93.2075223396  -0.001841974926 0.00174156  0.00009489  0.2645575 0.7000
                               ***Turning on DIIS***
  4    -93.2087990117  -0.001276672106 0.00121031  0.00006556  0.1801149 0.7000
  5    -93.2096867532  -0.000887741482 0.00083271  0.00004448  0.1226142 0.7000
  6    -93.2103054006  -0.000618647321 0.00193175  0.00010275  0.0851734 0.0000
                      *** Initiating the SOSCF procedure ***
                           *** Shutting down DIIS ***
                      *** Re-Reading the Fockian *** 
                      *** Removing any level shift *** 
ITER      Energy       Delta-E        Grad      Rot      Max-DP    RMS-DP
  7    -93.21174086  -0.0014354550  0.000267  0.000267  0.000008  0.000000
               *** Restarting incremental Fock matrix formation ***
  8    -93.21174086  -0.0000000040  0.000003  0.000000  0.000000  0.000000
                 **** Energy Check signals convergence ****
              ***Rediagonalizing the Fockian in SOSCF/NRSCF***

               *****************************************************
               *                     SUCCESS                       *
               *           SCF CONVERGED AFTER   9 CYCLES          *
               *****************************************************

Setting up the final grid:

General Integration Accuracy     IntAcc      ...  5.340
Radial Grid Type                 RadialGrid  ... Gauss-Chebyshev
Angular Grid (max. acc.)         AngularGrid ... Lebedev-590
Angular grid pruning method      GridPruning ... 3 (G Style)
Weight generation scheme         WeightScheme... Becke
Basis function cutoff            BFCut       ...    1.0000e-12
Integration weight cutoff        WCut        ...    1.0000e-14
Grids for H and He will be reduced by one unit

# of grid points (after initial pruning)     ...  16840 (   0.0 sec)
# of grid points (after weights+screening)   ...  16840 (   0.0 sec)
Grid point division into batches done        ...    0.2 sec
Reduced shell lists constructed in    0.2 sec

Total number of grid points                  ...    16840
Total number of batches                      ...      264
Average number of points per batch           ...       63
Average number of grid points per atom       ...    16840
Average number of shells per batch           ...     0.00 ( 0.00%)
Average number of basis functions per batch  ...     0.00 ( 0.00%)
Average number of large shells per batch     ...     0.00 ( -nan%)
Average number of large basis fcns per batch ...     0.00 ( -nan%)
Maximum spatial batch extension              ...  16.63, 16.63, 16.63 au
Average spatial batch extension              ...   0.74,  0.74,  0.69 au

Final grid set up in    0.2 sec
Final integration                            ... done (   0.0 sec)
Change in XC energy                          ...     0.000001239
Integrated number of electrons               ...     1.999999781
Previous integrated no of electrons          ...     2.000000017

----------------
TOTAL SCF ENERGY
----------------

Total Energy       :          -93.21173962 Eh           -2536.42038 eV

Components:
Nuclear Repulsion  :            0.00000000 Eh               0.00000 eV
Electronic Energy  :          -93.21173962 Eh           -2536.42038 eV
One Electron Energy:          -99.85103027 Eh           -2717.08467 eV
Two Electron Energy:            6.63929065 Eh             180.66428 eV

Virial components:
Potential Energy   :         -186.29733862 Eh           -5069.40831 eV
Kinetic Energy     :           93.08559899 Eh            2532.98792 eV
Virial Ratio       :            2.00135510


DFT components:
N(Alpha)           :        0.999999890588 electrons
N(Beta)            :        0.999999890588 electrons
N(Total)           :        1.999999781175 electrons
E(X)               :       -5.145559129371 Eh       
E(C)               :       -0.202677411930 Eh       
E(XC)              :       -5.348236541301 Eh       
DFET-embed. en.    :        0.000000000000 Eh       

---------------
SCF CONVERGENCE
---------------

  Last Energy change         ...   -6.9633e-13  Tolerance :   1.0000e-09
  Last MAX-Density change    ...    5.5562e-09  Tolerance :   1.0000e-08
  Last RMS-Density change    ...    2.9699e-10  Tolerance :   1.0000e-09
  Last Orbital Gradient      ...    1.9598e-07  Tolerance :   2.0000e-06
  Last Orbital Rotation      ...    2.7950e-09  Tolerance :   2.0000e-06

             **** THE GBW FILE WAS UPDATED (Ne_zora-def2-tzvp_4385.151648_.gbw) ****
             **** DENSITY FILE WAS UPDATED (Ne_zora-def2-tzvp_4385.151648_.scfp) ****
             **** ENERGY FILE WAS UPDATED (Ne_zora-def2-tzvp_4385.151648_.en.tmp) ****
             **** THE GBW FILE WAS UPDATED (Ne_zora-def2-tzvp_4385.151648_.gbw) ****
             **** DENSITY FILE WAS UPDATED (Ne_zora-def2-tzvp_4385.151648_.scfp) ****
----------------
ORBITAL ENERGIES
----------------

  NO   OCC          E(Eh)            E(eV) 
   0   2.0000     -41.478907     -1128.6984 
   1   0.0000      -9.045837      -246.1497 
   2   0.0000      -8.598546      -233.9783 
   3   0.0000      -8.598546      -233.9783 
   4   0.0000      -8.598546      -233.9783 
   5   0.0000      -3.832282      -104.2817 
   6   0.0000      -3.688907      -100.3803 
   7   0.0000      -3.688907      -100.3803 
   8   0.0000      -3.688907      -100.3803 
   9   0.0000      -3.484980       -94.8311 
  10   0.0000      -3.484980       -94.8311 
  11   0.0000      -3.484980       -94.8311 
  12   0.0000      -3.484980       -94.8311 
  13   0.0000      -3.484980       -94.8311 
  14   0.0000      -1.901586       -51.7448 
  15   0.0000      -1.901586       -51.7448 
  16   0.0000      -1.901586       -51.7448 
  17   0.0000      -1.539742       -41.8985 
  18   0.0000       2.061760        56.1033 
  19   0.0000       2.061760        56.1033 
  20   0.0000       2.061760        56.1033 
  21   0.0000       2.061760        56.1033 
  22   0.0000       2.061760        56.1033 
  23   0.0000       2.061760        56.1033 
  24   0.0000       2.061760        56.1033 
  25   0.0000       2.556642        69.5698 
  26   0.0000       2.556642        69.5698 
  27   0.0000       2.556642        69.5698 
  28   0.0000       2.556642        69.5698 
  29   0.0000       2.556642        69.5698 
  30   0.0000      13.945955       379.4887 
  31   0.0000     117.465786      3196.4065 

                    ********************************
                    * MULLIKEN POPULATION ANALYSIS *
                    ********************************

-----------------------
MULLIKEN ATOMIC CHARGES
-----------------------
   0 Ne:    8.000000
Sum of atomic charges:    8.0000000

--------------------------------
MULLIKEN REDUCED ORBITAL CHARGES
--------------------------------
  0 Nes       :     2.000000  s :     2.000000
      pz      :     0.000000  p :     0.000000
      px      :     0.000000
      py      :     0.000000
      dz2     :     0.000000  d :     0.000000
      dxz     :     0.000000
      dyz     :     0.000000
      dx2y2   :     0.000000
      dxy     :     0.000000
      f0      :     0.000000  f :     0.000000
      f+1     :     0.000000
      f-1     :     0.000000
      f+2     :     0.000000
      f-2     :     0.000000
      f+3     :     0.000000
      f-3     :     0.000000


                     *******************************
                     * LOEWDIN POPULATION ANALYSIS *
                     *******************************

----------------------
LOEWDIN ATOMIC CHARGES
----------------------
   0 Ne:    8.000000

-------------------------------
LOEWDIN REDUCED ORBITAL CHARGES
-------------------------------
  0 Nes       :     2.000000  s :     2.000000
      pz      :     0.000000  p :     0.000000
      px      :     0.000000
      py      :     0.000000
      dz2     :     0.000000  d :     0.000000
      dxz     :     0.000000
      dyz     :     0.000000
      dx2y2   :     0.000000
      dxy     :     0.000000
      f0      :     0.000000  f :     0.000000
      f+1     :     0.000000
      f-1     :     0.000000
      f+2     :     0.000000
      f-2     :     0.000000
      f+3     :     0.000000
      f-3     :     0.000000


                      *****************************
                      * MAYER POPULATION ANALYSIS *
                      *****************************

  NA   - Mulliken gross atomic population
  ZA   - Total nuclear charge
  QA   - Mulliken gross atomic charge
  VA   - Mayer's total valence
  BVA  - Mayer's bonded valence
  FA   - Mayer's free valence

  ATOM       NA         ZA         QA         VA         BVA        FA
  0 Ne     2.0000    10.0000     8.0000     0.0000     0.0000     0.0000

  Mayer bond orders larger than 0.100000


--------------------------
ATOM BASIS FOR ELEMENT Ne
--------------------------
 NewGTO Ne
 S 11
    1      45069.464022000000         0.000257443253
    2       6755.976865600000         0.001879690479
    3       1537.650286400000         0.009537507469
    4        435.516976670000         0.038227812734
    5        142.286556380000         0.121039748101
    6         51.692153800000         0.283144496033
    7         20.315870490000         0.420036845191
    8          8.202194260000         0.264446777742
    9          1.968127630000         0.017214439358
   10          0.779047560000        -0.006255635145
   11          0.302295020000         0.001704630082
 S 11
    1      45069.464022000000         0.000091328230
    2       6755.976865600000         0.000666821921
    3       1537.650286400000         0.003383439522
    4        435.516976670000         0.013561351628
    5        142.286556380000         0.042938961650
    6         51.692153800000         0.100445769654
    7         20.315870490000         0.264203565847
    8          8.202194260000         0.099634009578
    9          1.968127630000        -0.883481227684
   10          0.779047560000        -0.245577284119
   11          0.302295020000         0.001117512732
 S 11
    1      45069.464022000000        -0.000048809816
    2       6755.976865600000        -0.000356378914
    3       1537.650286400000        -0.001808258643
    4        435.516976670000        -0.007247781773
    5        142.286556380000        -0.022948466505
    6         51.692153800000        -0.053682629757
    7         20.315870490000        -0.148254498620
    8          8.202194260000        -0.072721234564
    9          1.968127630000         1.092250128620
   10          0.779047560000        -0.328878820384
   11          0.302295020000        -1.042827318896
 S 11
    1      45069.464022000000        -0.000060068245
    2       6755.976865600000        -0.000438580955
    3       1537.650286400000        -0.002225349963
    4        435.516976670000        -0.008919548628
    5        142.286556380000        -0.028241739246
    6         51.692153800000        -0.066065017082
    7         20.315870490000        -0.150390684392
    8          8.202194260000        -0.196030548316
    9          1.968127630000         2.535298452145
   10          0.779047560000        -4.121215567793
   11          0.302295020000         2.249084231270
 S 11
    1      45069.464022000000         0.000139849600
    2       6755.976865600000         0.001021094781
    3       1537.650286400000         0.005181012094
    4        435.516976670000         0.020766301965
    5        142.286556380000         0.065751812072
    6         51.692153800000         0.153811156950
    7         20.315870490000         1.656439355629
    8          8.202194260000        -3.204924770012
    9          1.968127630000         2.975466103225
   10          0.779047560000        -2.226173151261
   11          0.302295020000         0.739844182820
 S 11
    1      45069.464022000000        -0.001114855450
    2       6755.976865600000        -0.008139980956
    3       1537.650286400000        -0.041302081395
    4        435.516976670000        -0.165545163467
    5        142.286556380000        -0.524161427311
    6         51.692153800000        -1.226154428644
    7         20.315870490000         3.377684748020
    8          8.202194260000        -2.506816358486
    9          1.968127630000         1.254728864571
   10          0.779047560000        -0.832839787892
   11          0.302295020000         0.267779854194
 P 6
    1         99.782996030000         0.011805759272
    2         23.176124100000         0.081874276336
    3          7.116394590000         0.308392033831
    4          2.441871140000         0.648419335549
    5          0.833896060000         0.102696589462
    6          0.266073110000         0.006981382980
 P 6
    1         99.782996030000         0.008191721851
    2         23.176124100000         0.056810517902
    3          7.116394590000         0.213985539083
    4          2.441871140000         0.449922001375
    5          0.833896060000        -0.771026139522
    6          0.266073110000        -0.471687711986
 P 6
    1         99.782996030000         0.008314804815
    2         23.176124100000         0.057664112187
    3          7.116394590000         0.217200733027
    4          2.441871140000         0.456682208164
    5          0.833896060000        -1.560670604708
    6          0.266073110000         1.354722918189
 D 2
    1          4.014000000000         0.188655990576
    2          1.096000000000         0.892020585632
 D 2
    1          4.014000000000         1.140168408063
    2          1.096000000000        -0.734761428176
 F 1
    1          2.544000000000         1.000000000000
 end
  // -----------------------------------------------
  // The basis set
  // -----------------------------------------------
  BAS[ATNO] = new BFNGauss[NSH];
  // Basis function   1 L = s
  InitBFNGauss(BAS[ATNO][  0]);
  BAS[ATNO][  0].l  = 0;
  BAS[ATNO][  0].ng = 11;
  BAS[ATNO][  0].a[  0] =     45069.464022000000;     BAS[ATNO][  0].d[  0] =         0.000257443253;
  BAS[ATNO][  0].a[  1] =      6755.976865600000;     BAS[ATNO][  0].d[  1] =         0.001879690479;
  BAS[ATNO][  0].a[  2] =      1537.650286400000;     BAS[ATNO][  0].d[  2] =         0.009537507469;
  BAS[ATNO][  0].a[  3] =       435.516976670000;     BAS[ATNO][  0].d[  3] =         0.038227812734;
  BAS[ATNO][  0].a[  4] =       142.286556380000;     BAS[ATNO][  0].d[  4] =         0.121039748101;
  BAS[ATNO][  0].a[  5] =        51.692153800000;     BAS[ATNO][  0].d[  5] =         0.283144496033;
  BAS[ATNO][  0].a[  6] =        20.315870490000;     BAS[ATNO][  0].d[  6] =         0.420036845191;
  BAS[ATNO][  0].a[  7] =         8.202194260000;     BAS[ATNO][  0].d[  7] =         0.264446777742;
  BAS[ATNO][  0].a[  8] =         1.968127630000;     BAS[ATNO][  0].d[  8] =         0.017214439358;
  BAS[ATNO][  0].a[  9] =         0.779047560000;     BAS[ATNO][  0].d[  9] =        -0.006255635145;
  BAS[ATNO][  0].a[ 10] =         0.302295020000;     BAS[ATNO][  0].d[ 10] =         0.001704630082;

  // Basis function   2 L = s
  InitBFNGauss(BAS[ATNO][  1]);
  BAS[ATNO][  1].l  = 0;
  BAS[ATNO][  1].ng = 11;
  BAS[ATNO][  1].a[  0] =     45069.464022000000;     BAS[ATNO][  1].d[  0] =        -0.000091328230;
  BAS[ATNO][  1].a[  1] =      6755.976865600000;     BAS[ATNO][  1].d[  1] =        -0.000666821921;
  BAS[ATNO][  1].a[  2] =      1537.650286400000;     BAS[ATNO][  1].d[  2] =        -0.003383439522;
  BAS[ATNO][  1].a[  3] =       435.516976670000;     BAS[ATNO][  1].d[  3] =        -0.013561351628;
  BAS[ATNO][  1].a[  4] =       142.286556380000;     BAS[ATNO][  1].d[  4] =        -0.042938961650;
  BAS[ATNO][  1].a[  5] =        51.692153800000;     BAS[ATNO][  1].d[  5] =        -0.100445769654;
  BAS[ATNO][  1].a[  6] =        20.315870490000;     BAS[ATNO][  1].d[  6] =        -0.264203565847;
  BAS[ATNO][  1].a[  7] =         8.202194260000;     BAS[ATNO][  1].d[  7] =        -0.099634009578;
  BAS[ATNO][  1].a[  8] =         1.968127630000;     BAS[ATNO][  1].d[  8] =         0.883481227684;
  BAS[ATNO][  1].a[  9] =         0.779047560000;     BAS[ATNO][  1].d[  9] =         0.245577284119;
  BAS[ATNO][  1].a[ 10] =         0.302295020000;     BAS[ATNO][  1].d[ 10] =        -0.001117512732;

  // Basis function   3 L = s
  InitBFNGauss(BAS[ATNO][  2]);
  BAS[ATNO][  2].l  = 0;
  BAS[ATNO][  2].ng = 11;
  BAS[ATNO][  2].a[  0] =     45069.464022000000;     BAS[ATNO][  2].d[  0] =        -0.000048809816;
  BAS[ATNO][  2].a[  1] =      6755.976865600000;     BAS[ATNO][  2].d[  1] =        -0.000356378914;
  BAS[ATNO][  2].a[  2] =      1537.650286400000;     BAS[ATNO][  2].d[  2] =        -0.001808258643;
  BAS[ATNO][  2].a[  3] =       435.516976670000;     BAS[ATNO][  2].d[  3] =        -0.007247781773;
  BAS[ATNO][  2].a[  4] =       142.286556380000;     BAS[ATNO][  2].d[  4] =        -0.022948466505;
  BAS[ATNO][  2].a[  5] =        51.692153800000;     BAS[ATNO][  2].d[  5] =        -0.053682629757;
  BAS[ATNO][  2].a[  6] =        20.315870490000;     BAS[ATNO][  2].d[  6] =        -0.148254498620;
  BAS[ATNO][  2].a[  7] =         8.202194260000;     BAS[ATNO][  2].d[  7] =        -0.072721234564;
  BAS[ATNO][  2].a[  8] =         1.968127630000;     BAS[ATNO][  2].d[  8] =         1.092250128620;
  BAS[ATNO][  2].a[  9] =         0.779047560000;     BAS[ATNO][  2].d[  9] =        -0.328878820384;
  BAS[ATNO][  2].a[ 10] =         0.302295020000;     BAS[ATNO][  2].d[ 10] =        -1.042827318896;

  // Basis function   4 L = s
  InitBFNGauss(BAS[ATNO][  3]);
  BAS[ATNO][  3].l  = 0;
  BAS[ATNO][  3].ng = 11;
  BAS[ATNO][  3].a[  0] =     45069.464022000000;     BAS[ATNO][  3].d[  0] =         0.000060068245;
  BAS[ATNO][  3].a[  1] =      6755.976865600000;     BAS[ATNO][  3].d[  1] =         0.000438580955;
  BAS[ATNO][  3].a[  2] =      1537.650286400000;     BAS[ATNO][  3].d[  2] =         0.002225349963;
  BAS[ATNO][  3].a[  3] =       435.516976670000;     BAS[ATNO][  3].d[  3] =         0.008919548628;
  BAS[ATNO][  3].a[  4] =       142.286556380000;     BAS[ATNO][  3].d[  4] =         0.028241739246;
  BAS[ATNO][  3].a[  5] =        51.692153800000;     BAS[ATNO][  3].d[  5] =         0.066065017082;
  BAS[ATNO][  3].a[  6] =        20.315870490000;     BAS[ATNO][  3].d[  6] =         0.150390684392;
  BAS[ATNO][  3].a[  7] =         8.202194260000;     BAS[ATNO][  3].d[  7] =         0.196030548316;
  BAS[ATNO][  3].a[  8] =         1.968127630000;     BAS[ATNO][  3].d[  8] =        -2.535298452145;
  BAS[ATNO][  3].a[  9] =         0.779047560000;     BAS[ATNO][  3].d[  9] =         4.121215567793;
  BAS[ATNO][  3].a[ 10] =         0.302295020000;     BAS[ATNO][  3].d[ 10] =        -2.249084231270;

  // Basis function   5 L = s
  InitBFNGauss(BAS[ATNO][  4]);
  BAS[ATNO][  4].l  = 0;
  BAS[ATNO][  4].ng = 11;
  BAS[ATNO][  4].a[  0] =     45069.464022000000;     BAS[ATNO][  4].d[  0] =        -0.000139849600;
  BAS[ATNO][  4].a[  1] =      6755.976865600000;     BAS[ATNO][  4].d[  1] =        -0.001021094781;
  BAS[ATNO][  4].a[  2] =      1537.650286400000;     BAS[ATNO][  4].d[  2] =        -0.005181012094;
  BAS[ATNO][  4].a[  3] =       435.516976670000;     BAS[ATNO][  4].d[  3] =        -0.020766301965;
  BAS[ATNO][  4].a[  4] =       142.286556380000;     BAS[ATNO][  4].d[  4] =        -0.065751812072;
  BAS[ATNO][  4].a[  5] =        51.692153800000;     BAS[ATNO][  4].d[  5] =        -0.153811156950;
  BAS[ATNO][  4].a[  6] =        20.315870490000;     BAS[ATNO][  4].d[  6] =        -1.656439355629;
  BAS[ATNO][  4].a[  7] =         8.202194260000;     BAS[ATNO][  4].d[  7] =         3.204924770012;
  BAS[ATNO][  4].a[  8] =         1.968127630000;     BAS[ATNO][  4].d[  8] =        -2.975466103225;
  BAS[ATNO][  4].a[  9] =         0.779047560000;     BAS[ATNO][  4].d[  9] =         2.226173151261;
  BAS[ATNO][  4].a[ 10] =         0.302295020000;     BAS[ATNO][  4].d[ 10] =        -0.739844182820;

  // Basis function   6 L = s
  InitBFNGauss(BAS[ATNO][  5]);
  BAS[ATNO][  5].l  = 0;
  BAS[ATNO][  5].ng = 11;
  BAS[ATNO][  5].a[  0] =     45069.464022000000;     BAS[ATNO][  5].d[  0] =        -0.001114855450;
  BAS[ATNO][  5].a[  1] =      6755.976865600000;     BAS[ATNO][  5].d[  1] =        -0.008139980956;
  BAS[ATNO][  5].a[  2] =      1537.650286400000;     BAS[ATNO][  5].d[  2] =        -0.041302081395;
  BAS[ATNO][  5].a[  3] =       435.516976670000;     BAS[ATNO][  5].d[  3] =        -0.165545163467;
  BAS[ATNO][  5].a[  4] =       142.286556380000;     BAS[ATNO][  5].d[  4] =        -0.524161427311;
  BAS[ATNO][  5].a[  5] =        51.692153800000;     BAS[ATNO][  5].d[  5] =        -1.226154428644;
  BAS[ATNO][  5].a[  6] =        20.315870490000;     BAS[ATNO][  5].d[  6] =         3.377684748020;
  BAS[ATNO][  5].a[  7] =         8.202194260000;     BAS[ATNO][  5].d[  7] =        -2.506816358486;
  BAS[ATNO][  5].a[  8] =         1.968127630000;     BAS[ATNO][  5].d[  8] =         1.254728864571;
  BAS[ATNO][  5].a[  9] =         0.779047560000;     BAS[ATNO][  5].d[  9] =        -0.832839787892;
  BAS[ATNO][  5].a[ 10] =         0.302295020000;     BAS[ATNO][  5].d[ 10] =         0.267779854194;

  // Basis function   7 L = p
  InitBFNGauss(BAS[ATNO][  6]);
  BAS[ATNO][  6].l  = 1;
  BAS[ATNO][  6].ng = 6;
  BAS[ATNO][  6].a[  0] =        99.782996030000;     BAS[ATNO][  6].d[  0] =         0.011805759272;
  BAS[ATNO][  6].a[  1] =        23.176124100000;     BAS[ATNO][  6].d[  1] =         0.081874276336;
  BAS[ATNO][  6].a[  2] =         7.116394590000;     BAS[ATNO][  6].d[  2] =         0.308392033831;
  BAS[ATNO][  6].a[  3] =         2.441871140000;     BAS[ATNO][  6].d[  3] =         0.648419335549;
  BAS[ATNO][  6].a[  4] =         0.833896060000;     BAS[ATNO][  6].d[  4] =         0.102696589462;
  BAS[ATNO][  6].a[  5] =         0.266073110000;     BAS[ATNO][  6].d[  5] =         0.006981382980;

  // Basis function   8 L = p
  InitBFNGauss(BAS[ATNO][  7]);
  BAS[ATNO][  7].l  = 1;
  BAS[ATNO][  7].ng = 6;
  BAS[ATNO][  7].a[  0] =        99.782996030000;     BAS[ATNO][  7].d[  0] =        -0.008191721851;
  BAS[ATNO][  7].a[  1] =        23.176124100000;     BAS[ATNO][  7].d[  1] =        -0.056810517902;
  BAS[ATNO][  7].a[  2] =         7.116394590000;     BAS[ATNO][  7].d[  2] =        -0.213985539083;
  BAS[ATNO][  7].a[  3] =         2.441871140000;     BAS[ATNO][  7].d[  3] =        -0.449922001375;
  BAS[ATNO][  7].a[  4] =         0.833896060000;     BAS[ATNO][  7].d[  4] =         0.771026139522;
  BAS[ATNO][  7].a[  5] =         0.266073110000;     BAS[ATNO][  7].d[  5] =         0.471687711986;

  // Basis function   9 L = p
  InitBFNGauss(BAS[ATNO][  8]);
  BAS[ATNO][  8].l  = 1;
  BAS[ATNO][  8].ng = 6;
  BAS[ATNO][  8].a[  0] =        99.782996030000;     BAS[ATNO][  8].d[  0] =        -0.008314804815;
  BAS[ATNO][  8].a[  1] =        23.176124100000;     BAS[ATNO][  8].d[  1] =        -0.057664112187;
  BAS[ATNO][  8].a[  2] =         7.116394590000;     BAS[ATNO][  8].d[  2] =        -0.217200733027;
  BAS[ATNO][  8].a[  3] =         2.441871140000;     BAS[ATNO][  8].d[  3] =        -0.456682208164;
  BAS[ATNO][  8].a[  4] =         0.833896060000;     BAS[ATNO][  8].d[  4] =         1.560670604708;
  BAS[ATNO][  8].a[  5] =         0.266073110000;     BAS[ATNO][  8].d[  5] =        -1.354722918189;

  // Basis function  10 L = d
  InitBFNGauss(BAS[ATNO][  9]);
  BAS[ATNO][  9].l  = 2;
  BAS[ATNO][  9].ng = 2;
  BAS[ATNO][  9].a[  0] =         4.014000000000;     BAS[ATNO][  9].d[  0] =         0.188655990576;
  BAS[ATNO][  9].a[  1] =         1.096000000000;     BAS[ATNO][  9].d[  1] =         0.892020585632;

  // Basis function  11 L = d
  InitBFNGauss(BAS[ATNO][ 10]);
  BAS[ATNO][ 10].l  = 2;
  BAS[ATNO][ 10].ng = 2;
  BAS[ATNO][ 10].a[  0] =         4.014000000000;     BAS[ATNO][ 10].d[  0] =         1.140168408063;
  BAS[ATNO][ 10].a[  1] =         1.096000000000;     BAS[ATNO][ 10].d[  1] =        -0.734761428176;

  // Basis function  12 L = f
  InitBFNGauss(BAS[ATNO][ 11]);
  BAS[ATNO][ 11].l  = 3;
  BAS[ATNO][ 11].ng = 1;
  BAS[ATNO][ 11].a[  0] =         2.544000000000;     BAS[ATNO][ 11].d[  0] =         1.000000000000;

-------
TIMINGS
-------

Total SCF time: 0 days 0 hours 0 min 1 sec 

Total time                  ....       1.751 sec
Sum of individual times     ....       1.583 sec  ( 90.4%)

Fock matrix formation       ....       1.176 sec  ( 67.2%)
  XC integration            ....       0.028 sec  (  2.3% of F)
    Basis function eval.    ....       0.003 sec  (  9.4% of XC)
    Density eval.           ....       0.001 sec  (  4.7% of XC)
    XC-Functional eval.     ....       0.002 sec  (  7.4% of XC)
    XC-Potential eval.      ....       0.001 sec  (  3.7% of XC)
Diagonalization             ....       0.001 sec  (  0.1%)
Density matrix formation    ....       0.001 sec  (  0.0%)
Population analysis         ....       0.001 sec  (  0.0%)
Initial guess               ....       0.078 sec  (  4.4%)
Orbital Transformation      ....       0.000 sec  (  0.0%)
Orbital Orthonormalization  ....       0.000 sec  (  0.0%)
DIIS solution               ....       0.001 sec  (  0.0%)
SOSCF solution              ....       0.000 sec  (  0.0%)
Grid generation             ....       0.325 sec  ( 18.6%)

-------------------------   --------------------
FINAL SINGLE POINT ENERGY       -93.211739620604
-------------------------   --------------------


                            ***************************************
                            *     ORCA property calculations      *
                            ***************************************

                                    ---------------------
                                    Active property flags
                                    ---------------------
   (+) Dipole Moment


------------------------------------------------------------------------------
                       ORCA ELECTRIC PROPERTIES CALCULATION
------------------------------------------------------------------------------

Dipole Moment Calculation                       ... on
Quadrupole Moment Calculation                   ... off
Polarizability Calculation                      ... off
GBWName                                         ... Ne_zora-def2-tzvp_4385.151648_.gbw
Electron density file                           ... Ne_zora-def2-tzvp_4385.151648_.scfp
The origin for moment calculation is the CENTER OF MASS  = ( 0.000000,  0.000000  0.000000)

-------------
DIPOLE MOMENT
-------------
                                X             Y             Z
Electronic contribution:     -0.00000      -0.00000      -0.00000
Nuclear contribution   :      0.00000       0.00000       0.00000
                        -----------------------------------------
Total Dipole Moment    :     -0.00000      -0.00000      -0.00000
                        -----------------------------------------
Magnitude (a.u.)       :      0.00000
Magnitude (Debye)      :      0.00000



--------------------
Rotational spectrum 
--------------------
 
Rotational constants in cm-1:     0.000000     0.000000     0.000000 
Rotational constants in MHz :     0.000000     0.000000     0.000000 

 Dipole components along the rotational axes: 
x,y,z [a.u.] :    -0.000000    -0.000000    -0.000000 
x,y,z [Debye]:    -0.000000    -0.000000    -0.000000 

 

Timings for individual modules:

Sum of individual times         ...        2.840 sec (=   0.047 min)
GTO integral calculation        ...        0.485 sec (=   0.008 min)  17.1 %
Relativistic integrals          ...        0.351 sec (=   0.006 min)  12.4 %
SCF iterations                  ...        2.003 sec (=   0.033 min)  70.5 %
                             ****ORCA TERMINATED NORMALLY****
TOTAL RUN TIME: 0 days 0 hours 0 minutes 3 seconds 149 msec
