
                                 *****************
                                 * O   R   C   A *
                                 *****************

           --- An Ab Initio, DFT and Semiempirical electronic structure package ---

                  #######################################################
                  #                        -***-                        #
                  #          Department of theory and spectroscopy      #
                  #               Directorship: Frank Neese             #
                  #        Max Planck Institute fuer Kohlenforschung    #
                  #                Kaiser Wilhelm Platz 1               #
                  #                 D-45470 Muelheim/Ruhr               #
                  #                      Germany                        #
                  #                                                     #
                  #                  All rights reserved                #
                  #                        -***-                        #
                  #######################################################


                         Program Version 4.2.1 -  RELEASE  -


 With contributions from (in alphabetic order):
   Daniel Aravena         : Magnetic Suceptibility
   Michael Atanasov       : Ab Initio Ligand Field Theory (pilot matlab implementation)
   Alexander A. Auer      : GIAO ZORA, VPT2
   Ute Becker             : Parallelization
   Giovanni Bistoni       : ED, misc. LED, open-shell LED, HFLD
   Martin Brehm           : Molecular dynamics
   Dmytro Bykov           : SCF Hessian
   Vijay G. Chilkuri      : MRCI spin determinant printing, contributions to CSF-ICE
   Dipayan Datta          : RHF DLPNO-CCSD density
   Achintya Kumar Dutta   : EOM-CC, STEOM-CC
   Dmitry Ganyushin       : Spin-Orbit,Spin-Spin,Magnetic field MRCI
   Miquel Garcia          : C-PCM Hessian, Gaussian charge scheme
   Yang Guo               : DLPNO-NEVPT2, CIM, IAO-localization
   Andreas Hansen         : Spin unrestricted coupled pair/coupled cluster methods
   Benjamin Helmich-Paris : CASSCF linear response (MC-RPA)
   Lee Huntington         : MR-EOM, pCC
   Robert Izsak           : Overlap fitted RIJCOSX, COSX-SCS-MP3, EOM
   Christian Kollmar      : KDIIS, OOCD, Brueckner-CCSD(T), CCSD density
   Simone Kossmann        : Meta GGA functionals, TD-DFT gradient, OOMP2, MP2 Hessian
   Martin Krupicka        : AUTO-CI
   Lucas Lang             : DCDCAS
   Dagmar Lenk            : GEPOL surface, SMD
   Dimitrios Liakos       : Extrapolation schemes; Compound Job, initial MDCI parallelization
   Dimitrios Manganas     : Further ROCIS development; embedding schemes
   Dimitrios Pantazis     : SARC Basis sets
   Taras Petrenko         : DFT Hessian,TD-DFT gradient, ASA, ECA, R-Raman, ABS, FL, XAS/XES, NRVS
   Peter Pinski           : DLPNO-MP2, DLPNO-MP2 Gradient
   Christoph Reimann      : Effective Core Potentials
   Marius Retegan         : Local ZFS, SOC
   Christoph Riplinger    : Optimizer, TS searches, QM/MM, DLPNO-CCSD(T), (RO)-DLPNO pert. Triples
   Tobias Risthaus        : Range-separated hybrids, TD-DFT gradient, RPA, STAB
   Michael Roemelt        : Original ROCIS implementation
   Masaaki Saitow         : Open-shell DLPNO-CCSD energy and density
   Barbara Sandhoefer     : DKH picture change effects
   Avijit Sen             : IP-ROCIS
   Kantharuban Sivalingam : CASSCF convergence, NEVPT2, FIC-MRCI
   Bernardo de Souza      : ESD, SOC TD-DFT
   Georgi Stoychev        : AutoAux, RI-MP2 NMR
   Willem Van den Heuvel  : Paramagnetic NMR
   Boris Wezisla          : Elementary symmetry handling
   Frank Wennmohs         : Technical directorship


 We gratefully acknowledge several colleagues who have allowed us to
 interface, adapt or use parts of their codes:
   Stefan Grimme, W. Hujo, H. Kruse,             : VdW corrections, initial TS optimization,
                  C. Bannwarth                     DFT functionals, gCP, sTDA/sTD-DF
   Ed Valeev, F. Pavosevic, A. Kumar             : LibInt (2-el integral package), F12 methods
   Garnet Chan, S. Sharma, J. Yang, R. Olivares  : DMRG
   Ulf Ekstrom                                   : XCFun DFT Library
   Mihaly Kallay                                 : mrcc  (arbitrary order and MRCC methods)
   Andreas Klamt, Michael Diedenhofen            : otool_cosmo (COSMO solvation model)
   Jiri Pittner, Ondrej Demel                    : Mk-CCSD
   Frank Weinhold                                : gennbo (NPA and NBO analysis)
   Christopher J. Cramer and Donald G. Truhlar   : smd solvation model
   Lars Goerigk                                  : TD-DFT with DH, B97 family of functionals
   V. Asgeirsson, H. Jonsson                     : NEB implementation
   FAccTs GmbH                                   : IRC, NEB, NEB-TS, Multilevel, MM, QM/MM, CI optimization
   S Lehtola, MJT Oliveira, MAL Marques          : LibXC Library


 Your calculation uses the libint2 library for the computation of 2-el integrals
 For citations please refer to: http://libint.valeyev.net

 Your ORCA version has been built with support for libXC version: 4.2.3
 For citations please refer to: https://tddft.org/programs/libxc/

 This ORCA versions uses:
   CBLAS   interface :  Fast vector & matrix operations
   LAPACKE interface :  Fast linear algebra routines
   SCALAPACK package :  Parallel linear algebra routines


----- Orbital basis set information -----
Your calculation utilizes the basis: ZORA-def2-QZVPP 
   Exponents from def2-QZVPP [F. Weigend and R. Ahlrichs, Phys. Chem. Chem. Phys. 7, 3297 (2005)],
   recontracted for ZORA by D. A. Pantazis.

================================================================================
                                        WARNINGS
                       Please study these warnings very carefully!
================================================================================


INFO   : the flag for use of LIBINT has been found!

================================================================================
                                       INPUT FILE
================================================================================
NAME = Ne_zora-def2-qzvpp_4385.151648_.inp
|  1> ! LDA zora-def2-qzvpp nori grid5 finalgrid6 verytightscf
|  2> %Pal NProcs 18 End
|  3> 
|  4> % REL
|  5>   Method ZORA
|  6>   ModelPot 1, 0, 0, 0
|  7>   velit 4385.151648
|  8> END
|  9> 
| 10> *xyz 8 1
| 11> Ne 0.0 0.0 0.0
| 12> **                         ****END OF INPUT****
================================================================================

                       ****************************
                       * Single Point Calculation *
                       ****************************

---------------------------------
CARTESIAN COORDINATES (ANGSTROEM)
---------------------------------
  Ne     0.000000    0.000000    0.000000

----------------------------
CARTESIAN COORDINATES (A.U.)
----------------------------
  NO LB      ZA    FRAG     MASS         X           Y           Z
   0 Ne   10.0000    0    20.179    0.000000    0.000000    0.000000

--------------------------------
INTERNAL COORDINATES (ANGSTROEM)
--------------------------------
 Ne     0   0   0     0.000000000000     0.00000000     0.00000000

---------------------------
INTERNAL COORDINATES (A.U.)
---------------------------
 Ne     0   0   0     0.000000000000     0.00000000     0.00000000

---------------------
BASIS SET INFORMATION
---------------------
There are 1 groups of distinct atoms

 Group   1 Type Ne  : 15s9p3d2f1g contracted to 8s4p3d2f1g pattern {81111111/6111/111/11/1}

Atom   0Ne   basis set group =>   1


           ************************************************************
           *        Program running with 18 parallel MPI-processes    *
           *              working on a common directory               *
           ************************************************************
------------------------------------------------------------------------------
                           ORCA GTO INTEGRAL CALCULATION
------------------------------------------------------------------------------

                         BASIS SET STATISTICS AND STARTUP INFO

 # of primitive gaussian shells          ...   30
 # of primitive gaussian functions       ...   80
 # of contracted shells                  ...   18
 # of contracted basis functions         ...   58
 Highest angular momentum                ...    4
 Maximum contraction depth               ...    8
 Integral package used                   ... LIBINT
 Integral threshhold            Thresh   ...  1.000e-12
 Primitive cut-off              TCut     ...  1.000e-14


------------------------------ INTEGRAL EVALUATION ----------------------------


 * One electron integrals 
 Pre-screening matrix                    ... done
 Shell pair data                         ... done (   0.000 sec)



           ************************************************************
           *        Program running with 18 parallel MPI-processes    *
           *              working on a common directory               *
           ************************************************************
------------------------------------------------------------------------------
                          ORCA RELATIVISTIC HAMILTONIAN
------------------------------------------------------------------------------

Relativistic Method            ... ZORA(MP)
Treatment of potential         ... Van Wuellen
Nucleus model                  ... Point Nucleus
Speed of light used            ... 4385.15164800000002


            *************************************************
            *         ZERO ORDER REGULAR APPROXIMATION      *
            *                     ZORA(MP)                  *
            *            Programmed by FN according to      *
            *                   C. van Wuellen              *
            *       J. Chem. Phys. (1998) vol 109, 392-399  *
            *************************************************

Terms included in model potential: +V(e,N)
Basis function cutoff value   ... 1.000000e-12
Loading the fitted atomic densities  (DKH4)  ... done
Calculating the cutoffs                      ... done
Number of fit functions                      ... 11
Setting up the integration grid ... done


           ************************************************************
           *        Program running with 18 parallel MPI-processes    *
           *              working on a common directory               *
           ************************************************************
-------------------------------------------------------------------------------
                                 ORCA SCF
-------------------------------------------------------------------------------

------------
SCF SETTINGS
------------
Hamiltonian:
 Density Functional     Method          .... DFT(GTOs)
 Exchange Functional    Exchange        .... Slater
   X-Alpha parameter    XAlpha          ....  0.666667
 Correlation Functional Correlation     .... VWN-5
 Gradients option       PostSCFGGA      .... off
   Density functional embedding theory  .... OFF

Relativistic Settings:
 Scalar relativistic method             .... ZORA
 Speed of light used       Velit        ....       4385.15165
Orbital energies will be scaled


General Settings:
 Integral files         IntName         .... Ne_zora-def2-qzvpp_4385.151648_
 Hartree-Fock type      HFTyp           .... RHF
 Total Charge           Charge          ....    8
 Multiplicity           Mult            ....    1
 Number of Electrons    NEL             ....    2
 Basis Dimension        Dim             ....   58
 Nuclear Repulsion      ENuc            ....      0.0000000000 Eh

Convergence Acceleration:
 DIIS                   CNVDIIS         .... on
   Start iteration      DIISMaxIt       ....    12
   Startup error        DIISStart       ....  0.200000
   # of expansion vecs  DIISMaxEq       ....     5
   Bias factor          DIISBfac        ....   1.050
   Max. coefficient     DIISMaxC        ....  10.000
 Newton-Raphson         CNVNR           .... off
 SOSCF                  CNVSOSCF        .... on
   Start iteration      SOSCFMaxIt      ....   150
   Startup grad/error   SOSCFStart      ....  0.003300
 Level Shifting         CNVShift        .... on
   Level shift para.    LevelShift      ....    0.2500
   Turn off err/grad.   ShiftErr        ....    0.0010
 Zerner damping         CNVZerner       .... off
 Static damping         CNVDamp         .... on
   Fraction old density DampFac         ....    0.7000
   Max. Damping (<1)    DampMax         ....    0.9800
   Min. Damping (>=0)   DampMin         ....    0.0000
   Turn off err/grad.   DampErr         ....    0.1000
 Fernandez-Rico         CNVRico         .... off

SCF Procedure:
 Maximum # iterations   MaxIter         ....   125
 SCF integral mode      SCFMode         .... Direct
   Integral package                     .... LIBINT
 Reset frequency        DirectResetFreq ....    20
 Integral Threshold     Thresh          ....  1.000e-12 Eh
 Primitive CutOff       TCut            ....  1.000e-14 Eh

Convergence Tolerance:
 Convergence Check Mode ConvCheckMode   .... Total+1el-Energy
 Convergence forced     ConvForced      .... 0
 Energy Change          TolE            ....  1.000e-09 Eh
 1-El. energy change                    ....  1.000e-06 Eh
 Orbital Gradient       TolG            ....  2.000e-06
 Orbital Rotation angle TolX            ....  2.000e-06
 DIIS Error             TolErr          ....  1.000e-08


Diagonalization of the overlap matrix:
Smallest eigenvalue                        ... 1.609e-03
Time for diagonalization                   ...    0.002 sec
Threshold for overlap eigenvalues          ... 1.000e-08
Number of eigenvalues below threshold      ... 0
Time for construction of square roots      ...    0.001 sec
Total time needed                          ...    0.003 sec

-------------------
DFT GRID GENERATION
-------------------

General Integration Accuracy     IntAcc      ...  5.010
Radial Grid Type                 RadialGrid  ... Gauss-Chebyshev
Angular Grid (max. acc.)         AngularGrid ... Lebedev-434
Angular grid pruning method      GridPruning ... 3 (G Style)
Weight generation scheme         WeightScheme... Becke
Basis function cutoff            BFCut       ...    1.0000e-12
Integration weight cutoff        WCut        ...    1.0000e-14
Grids for H and He will be reduced by one unit

# of grid points (after initial pruning)     ...  10818 (   0.0 sec)
# of grid points (after weights+screening)   ...  10818 (   0.0 sec)
Grid point division into batches done        ...    0.1 sec
Reduced shell lists constructed in    0.1 sec

Total number of grid points                  ...    10818
Total number of batches                      ...      170
Average number of points per batch           ...       63
Average number of grid points per atom       ...    10818
Average number of shells per batch           ...     0.00 ( 0.00%)
Average number of basis functions per batch  ...     0.00 ( 0.00%)
Average number of large shells per batch     ...     0.00 ( -nan%)
Average number of large basis fcns per batch ...     0.00 ( -nan%)
Maximum spatial batch extension              ...  16.29, 16.29, 16.29 au
Average spatial batch extension              ...   0.85,  0.86,  0.85 au

Time for grid setup =    0.121 sec

------------------------------
INITIAL GUESS: MODEL POTENTIAL
------------------------------
Loading ZORA relativistic densities                ... done
Calculating cut-offs                               ... done
Setting up the integral package                    ... done
Initializing the effective Hamiltonian             ... done
Starting the Coulomb interaction                   ... done (   0.0 sec)
Reading the grid                                   ... done
Mapping shells                                     ... done
Starting the XC term evaluation                    ... done (   0.0 sec)
  promolecular density results
     # of electrons  =     10.000000334
     EX              =    -11.053709298
     EC              =     -0.746638772
     EX+EC           =    -11.800348070
Transforming the Hamiltonian                       ... done (   0.0 sec)
Diagonalizing the Hamiltonian                      ... done (   0.0 sec)
Back transforming the eigenvectors                 ... done (   0.0 sec)
Now organizing SCF variables                       ... done
                      ------------------
                      INITIAL GUESS DONE (   0.2 sec)
                      ------------------
--------------
SCF ITERATIONS
--------------
ITER       Energy         Delta-E        Max-DP      RMS-DP      [F,P]     Damp
               ***  Starting incremental Fock matrix formation  ***
  0    -93.1999678901   0.000000000000 0.00522190  0.00015438  0.8669994 0.7000
  1    -93.2038846123  -0.003916722280 0.00365847  0.00010807  0.5931722 0.7000
  2    -93.2065677388  -0.002683126429 0.00254172  0.00007497  0.4061310 0.7000
                      *** Initiating the SOSCF procedure ***
                      *** Re-Reading the Fockian *** 
                      *** Removing any level shift *** 
ITER      Energy       Delta-E        Grad      Rot      Max-DP    RMS-DP
  3    -93.20841855  -0.0018508089  0.002935  0.002935  0.005887  0.000173
               *** Restarting incremental Fock matrix formation ***
  4    -93.21265435  -0.0042358033  0.006683  0.000113  0.000323  0.000007
  5    -93.21265741  -0.0000030619  0.000358  0.000006  0.000017  0.000000
                  ***Gradient check signals convergence***
              ***Rediagonalizing the Fockian in SOSCF/NRSCF***

               *****************************************************
               *                     SUCCESS                       *
               *           SCF CONVERGED AFTER   6 CYCLES          *
               *****************************************************

Setting up the final grid:

General Integration Accuracy     IntAcc      ...  5.340
Radial Grid Type                 RadialGrid  ... Gauss-Chebyshev
Angular Grid (max. acc.)         AngularGrid ... Lebedev-590
Angular grid pruning method      GridPruning ... 3 (G Style)
Weight generation scheme         WeightScheme... Becke
Basis function cutoff            BFCut       ...    1.0000e-12
Integration weight cutoff        WCut        ...    1.0000e-14
Grids for H and He will be reduced by one unit

# of grid points (after initial pruning)     ...  16840 (   0.0 sec)
# of grid points (after weights+screening)   ...  16840 (   0.0 sec)
Grid point division into batches done        ...    0.2 sec
Reduced shell lists constructed in    0.2 sec

Total number of grid points                  ...    16840
Total number of batches                      ...      264
Average number of points per batch           ...       63
Average number of grid points per atom       ...    16840
Average number of shells per batch           ...     0.00 ( 0.00%)
Average number of basis functions per batch  ...     0.00 ( 0.00%)
Average number of large shells per batch     ...     0.00 ( -nan%)
Average number of large basis fcns per batch ...     0.00 ( -nan%)
Maximum spatial batch extension              ...  16.63, 16.63, 16.63 au
Average spatial batch extension              ...   0.74,  0.74,  0.69 au

Final grid set up in    0.2 sec
Final integration                            ... done (   0.0 sec)
Change in XC energy                          ...    -0.000000126
Integrated number of electrons               ...     2.000000000
Previous integrated no of electrons          ...     1.999999998

----------------
TOTAL SCF ENERGY
----------------

Total Energy       :          -93.21265755 Eh           -2536.44536 eV

Components:
Nuclear Repulsion  :            0.00000000 Eh               0.00000 eV
Electronic Energy  :          -93.21265755 Eh           -2536.44536 eV
One Electron Energy:          -99.85267002 Eh           -2717.12929 eV
Two Electron Energy:            6.64001247 Eh             180.68393 eV

Virial components:
Potential Energy   :         -186.27809777 Eh           -5068.88474 eV
Kinetic Energy     :           93.06544022 Eh            2532.43938 eV
Virial Ratio       :            2.00158187


DFT components:
N(Alpha)           :        0.999999999779 electrons
N(Beta)            :        0.999999999779 electrons
N(Total)           :        1.999999999559 electrons
E(X)               :       -5.146028596533 Eh       
E(C)               :       -0.202679836957 Eh       
E(XC)              :       -5.348708433490 Eh       
DFET-embed. en.    :        0.000000000000 Eh       

---------------
SCF CONVERGENCE
---------------

  Last Energy change         ...   -9.4304e-09  Tolerance :   1.0000e-09
  Last MAX-Density change    ...    4.2644e-09  Tolerance :   1.0000e-08
  Last RMS-Density change    ...    1.1897e-10  Tolerance :   1.0000e-09
  Last Orbital Gradient      ...    4.1091e-08  Tolerance :   2.0000e-06
  Last Orbital Rotation      ...    4.4384e-10  Tolerance :   2.0000e-06

             **** THE GBW FILE WAS UPDATED (Ne_zora-def2-qzvpp_4385.151648_.gbw) ****
             **** DENSITY FILE WAS UPDATED (Ne_zora-def2-qzvpp_4385.151648_.scfp) ****
             **** ENERGY FILE WAS UPDATED (Ne_zora-def2-qzvpp_4385.151648_.en.tmp) ****
             **** THE GBW FILE WAS UPDATED (Ne_zora-def2-qzvpp_4385.151648_.gbw) ****
             **** DENSITY FILE WAS UPDATED (Ne_zora-def2-qzvpp_4385.151648_.scfp) ****
----------------
ORBITAL ENERGIES
----------------

  NO   OCC          E(Eh)            E(eV) 
   0   2.0000     -41.478846     -1128.6968 
   1   0.0000      -9.049280      -246.2434 
   2   0.0000      -8.609271      -234.2702 
   3   0.0000      -8.609271      -234.2702 
   4   0.0000      -8.609271      -234.2702 
   5   0.0000      -3.829448      -104.2046 
   6   0.0000      -3.701957      -100.7354 
   7   0.0000      -3.701957      -100.7354 
   8   0.0000      -3.701957      -100.7354 
   9   0.0000      -3.584870       -97.5493 
  10   0.0000      -3.584870       -97.5493 
  11   0.0000      -3.584870       -97.5493 
  12   0.0000      -3.584870       -97.5493 
  13   0.0000      -3.584870       -97.5493 
  14   0.0000      -2.054372       -55.9023 
  15   0.0000      -2.054372       -55.9023 
  16   0.0000      -2.054372       -55.9023 
  17   0.0000      -1.494719       -40.6734 
  18   0.0000      -0.492231       -13.3943 
  19   0.0000      -0.492231       -13.3943 
  20   0.0000      -0.492231       -13.3943 
  21   0.0000      -0.424837       -11.5604 
  22   0.0000      -0.424837       -11.5604 
  23   0.0000      -0.424837       -11.5604 
  24   0.0000      -0.424837       -11.5604 
  25   0.0000      -0.424837       -11.5604 
  26   0.0000      -0.376078       -10.2336 
  27   0.0000      -0.376078       -10.2336 
  28   0.0000      -0.376078       -10.2336 
  29   0.0000      -0.376078       -10.2336 
  30   0.0000      -0.376078       -10.2336 
  31   0.0000      -0.376078       -10.2336 
  32   0.0000      -0.376078       -10.2336 
  33   0.0000       7.385627       200.9731 
  34   0.0000       7.385627       200.9731 
  35   0.0000       7.385627       200.9731 
  36   0.0000       7.385627       200.9731 
  37   0.0000       7.385627       200.9731 
  38   0.0000       7.385627       200.9731 
  39   0.0000       7.385627       200.9731 
  40   0.0000       7.385627       200.9731 
  41   0.0000       7.385627       200.9731 
  42   0.0000       8.821500       240.0452 
  43   0.0000      10.941563       297.7351 
  44   0.0000      10.941563       297.7351 
  45   0.0000      10.941563       297.7351 
  46   0.0000      10.941563       297.7351 
  47   0.0000      10.941563       297.7351 
  48   0.0000      10.941563       297.7351 
  49   0.0000      10.941563       297.7351 
  50   0.0000      11.304166       307.6020 
  51   0.0000      11.304166       307.6020 
  52   0.0000      11.304166       307.6020 
  53   0.0000      11.304166       307.6020 
  54   0.0000      11.304166       307.6020 
  55   0.0000      50.855884      1383.8589 
  56   0.0000     215.110705      5853.4599 
  57   0.0000    1151.770896     31341.2795 

                    ********************************
                    * MULLIKEN POPULATION ANALYSIS *
                    ********************************

-----------------------
MULLIKEN ATOMIC CHARGES
-----------------------
   0 Ne:    8.000000
Sum of atomic charges:    8.0000000

--------------------------------
MULLIKEN REDUCED ORBITAL CHARGES
--------------------------------
  0 Nes       :     2.000000  s :     2.000000
      pz      :     0.000000  p :     0.000000
      px      :     0.000000
      py      :     0.000000
      dz2     :     0.000000  d :     0.000000
      dxz     :     0.000000
      dyz     :     0.000000
      dx2y2   :     0.000000
      dxy     :     0.000000
      f0      :     0.000000  f :     0.000000
      f+1     :     0.000000
      f-1     :     0.000000
      f+2     :     0.000000
      f-2     :     0.000000
      f+3     :     0.000000
      f-3     :     0.000000
      g0      :     0.000000  g :     0.000000
      g+1     :     0.000000
      g-1     :     0.000000
      g+2     :     0.000000
      g-2     :     0.000000
      g+3     :     0.000000
      g-3     :     0.000000
      g+4     :     0.000000
      g-4     :     0.000000


                     *******************************
                     * LOEWDIN POPULATION ANALYSIS *
                     *******************************

----------------------
LOEWDIN ATOMIC CHARGES
----------------------
   0 Ne:    8.000000

-------------------------------
LOEWDIN REDUCED ORBITAL CHARGES
-------------------------------
  0 Nes       :     2.000000  s :     2.000000
      pz      :     0.000000  p :     0.000000
      px      :     0.000000
      py      :     0.000000
      dz2     :     0.000000  d :     0.000000
      dxz     :     0.000000
      dyz     :     0.000000
      dx2y2   :     0.000000
      dxy     :     0.000000
      f0      :     0.000000  f :     0.000000
      f+1     :     0.000000
      f-1     :     0.000000
      f+2     :     0.000000
      f-2     :     0.000000
      f+3     :     0.000000
      f-3     :     0.000000
      g0      :     0.000000  g :     0.000000
      g+1     :     0.000000
      g-1     :     0.000000
      g+2     :     0.000000
      g-2     :     0.000000
      g+3     :     0.000000
      g-3     :     0.000000
      g+4     :     0.000000
      g-4     :     0.000000


                      *****************************
                      * MAYER POPULATION ANALYSIS *
                      *****************************

  NA   - Mulliken gross atomic population
  ZA   - Total nuclear charge
  QA   - Mulliken gross atomic charge
  VA   - Mayer's total valence
  BVA  - Mayer's bonded valence
  FA   - Mayer's free valence

  ATOM       NA         ZA         QA         VA         BVA        FA
  0 Ne     2.0000    10.0000     8.0000    -0.0000     0.0000    -0.0000

  Mayer bond orders larger than 0.100000


--------------------------
ATOM BASIS FOR ELEMENT Ne
--------------------------
 NewGTO Ne
 S 15
    1     160676.279550000007         0.000056934271
    2      23953.195038999998         0.000397449376
    3       5437.506371100000         0.002010282451
    4       1544.274102400000         0.008173377095
    5        507.888142690000         0.028162029062
    6        184.948477500000         0.082665479639
    7         72.522952039000         0.198321635753
    8         30.088713575000         0.349190961128
    9        120.684349400000         0.002531177132
   10         36.074294857000         0.001831317954
   11         13.052091210000         0.354777562754
   12          5.797478335300         0.120645051223
   13          2.047862689500         0.002281354484
   14          0.802145719900         0.000048777047
   15          0.305486722000        -0.000043721546
 S 15
    1     160676.279550000007         0.000018839379
    2      23953.195038999998         0.000131514806
    3       5437.506371100000         0.000665196434
    4       1544.274102400000         0.002704545966
    5        507.888142690000         0.009318730950
    6        184.948477500000         0.027353759275
    7         72.522952039000         0.065624034446
    8         30.088713575000         0.115546241711
    9        120.684349400000         0.005624186972
   10         36.074294857000         0.041025323633
   11         13.052091210000         0.263221815254
   12          5.797478335300        -0.018924001359
   13          2.047862689500        -0.815676604805
   14          0.802145719900        -0.314258743733
   15          0.305486722000         0.015630298882
 S 15
    1     160676.279550000007        -0.000009937475
    2      23953.195038999998        -0.000069371984
    3       5437.506371100000        -0.000350880618
    4       1544.274102400000        -0.001426605304
    5        507.888142690000        -0.004915483475
    6        184.948477500000        -0.014428676223
    7         72.522952039000        -0.034615642257
    8         30.088713575000        -0.060948818539
    9        120.684349400000        -0.002389463789
   10         36.074294857000        -0.029232379755
   11         13.052091210000        -0.137910307208
   12          5.797478335300        -0.033406286468
   13          2.047862689500         1.058564939764
   14          0.802145719900        -0.246237471505
   15          0.305486722000        -1.080053063905
 S 15
    1     160676.279550000007        -0.000012189437
    2      23953.195038999998        -0.000085092586
    3       5437.506371100000        -0.000430394768
    4       1544.274102400000        -0.001749892776
    5        507.888142690000        -0.006029396494
    6        184.948477500000        -0.017698403478
    7         72.522952039000        -0.042460000756
    8         30.088713575000        -0.074760620127
    9        120.684349400000         0.002709065284
   10         36.074294857000        -0.058592894261
   11         13.052091210000        -0.051317242741
   12          5.797478335300        -0.366512609626
   13          2.047862689500         2.786178560966
   14          0.802145719900        -4.173015501738
   15          0.305486722000         2.210119183176
 S 15
    1     160676.279550000007        -0.000021984713
    2      23953.195038999998        -0.000153471896
    3       5437.506371100000        -0.000776254481
    4       1544.274102400000        -0.003156084158
    5        507.888142690000        -0.010874542155
    6        184.948477500000        -0.031920613431
    7         72.522952039000        -0.076580312575
    8         30.088713575000        -0.134837295235
    9        120.684349400000        -0.073323232713
   10         36.074294857000         0.148473500136
   11         13.052091210000        -2.132286258429
   12          5.797478335300         4.957803837025
   13          2.047862689500        -4.919655047391
   14          0.802145719900         3.054594315459
   15          0.305486722000        -0.941299234982
 S 15
    1     160676.279550000007        -0.000076189852
    2      23953.195038999998        -0.000531869627
    3       5437.506371100000        -0.002690174501
    4       1544.274102400000        -0.010937672280
    5        507.888142690000        -0.037686630758
    6        184.948477500000        -0.110623542102
    7         72.522952039000        -0.265395445817
    8         30.088713575000        -0.467289867048
    9        120.684349400000         0.229867077124
   10         36.074294857000        -1.826103809699
   11         13.052091210000         5.695304992097
   12          5.797478335300        -5.224415769673
   13          2.047862689500         2.814785720502
   14          0.802145719900        -1.395865885426
   15          0.305486722000         0.400026530772
 S 15
    1     160676.279550000007         0.000011424717
    2      23953.195038999998         0.000079754189
    3       5437.506371100000         0.000403393376
    4       1544.274102400000         0.001640110909
    5        507.888142690000         0.005651134231
    6        184.948477500000         0.016588070437
    7         72.522952039000         0.039796215754
    8         30.088713575000         0.070070412518
    9        120.684349400000         1.972405828991
   10         36.074294857000        -3.762558125948
   11         13.052091210000         3.876747588581
   12          5.797478335300        -2.681577555048
   13          2.047862689500         1.284427794866
   14          0.802145719900        -0.628877551214
   15          0.305486722000         0.181153758335
 S 15
    1     160676.279550000007        -0.001886852889
    2      23953.195038999998        -0.013171829433
    3       5437.506371100000        -0.066622566682
    4       1544.274102400000        -0.270873060727
    5        507.888142690000        -0.933314946750
    6        184.948477500000        -2.739608270325
    7         72.522952039000        -6.572557201220
    8         30.088713575000       -11.572502200504
    9        120.684349400000         7.828875615053
   10         36.074294857000        11.796600298986
   11         13.052091210000         3.106569243501
   12          5.797478335300        -1.625108472656
   13          2.047862689500         0.725407823719
   14          0.802145719900        -0.351734520916
   15          0.305486722000         0.101241047111
 P 9
    1        498.433974660000         0.000834420755
    2        118.141092170000         0.006777194156
    3         38.032529735000         0.033902594914
    4         14.183731950000         0.120613377854
    5          5.786419072100         0.308934041448
    6          2.459962216000         0.540681330927
    7          1.042199949800         0.128763124566
    8          0.429877489200         0.034564128555
    9          0.168897084500        -0.010760894571
 P 9
    1        498.433974660000         0.000561839857
    2        118.141092170000         0.004563282695
    3         38.032529735000         0.022827606992
    4         14.183731950000         0.081212508797
    5          5.786419072100         0.208014309897
    6          2.459962216000         0.364056526112
    7          1.042199949800        -0.345124803716
    8          0.429877489200        -0.798927891520
    9          0.168897084500        -0.026223505536
 P 9
    1        498.433974660000         0.000397680144
    2        118.141092170000         0.003229971848
    3         38.032529735000         0.016157782209
    4         14.183731950000         0.057483643826
    5          5.786419072100         0.147236191544
    6          2.459962216000         0.257685619983
    7          1.042199949800        -0.514107525712
    8          0.429877489200        -0.681374933083
    9          0.168897084500         1.363296430139
 P 9
    1        498.433974660000         0.000882736279
    2        118.141092170000         0.007169614509
    3         38.032529735000         0.035865659266
    4         14.183731950000         0.127597262806
    5          5.786419072100         0.326822271109
    6          2.459962216000         0.571988440289
    7          1.042199949800        -2.572081876228
    8          0.429877489200         2.843288399427
    9          0.168897084500        -1.311713436040
 D 3
    1          6.471000000000         0.061869984614
    2          2.213000000000         0.329557688153
    3          0.747000000000         0.740284270146
 D 3
    1          6.471000000000         0.068844163122
    2          2.213000000000         1.146187790396
    3          0.747000000000        -1.015497490823
 D 3
    1          6.471000000000         1.341017399414
    2          2.213000000000        -1.171193368176
    3          0.747000000000         0.450676177335
 F 2
    1          4.657000000000        -0.020701138519
    2          1.524000000000         1.010454590150
 F 2
    1          4.657000000000         1.164510530208
    2          1.524000000000        -0.579219158303
 G 1
    1          2.983000000000         1.000000000000
 end
  // -----------------------------------------------
  // The basis set
  // -----------------------------------------------
  BAS[ATNO] = new BFNGauss[NSH];
  // Basis function   1 L = s
  InitBFNGauss(BAS[ATNO][  0]);
  BAS[ATNO][  0].l  = 0;
  BAS[ATNO][  0].ng = 15;
  BAS[ATNO][  0].a[  0] =    160676.279550000007;     BAS[ATNO][  0].d[  0] =         0.000056934271;
  BAS[ATNO][  0].a[  1] =     23953.195038999998;     BAS[ATNO][  0].d[  1] =         0.000397449376;
  BAS[ATNO][  0].a[  2] =      5437.506371100000;     BAS[ATNO][  0].d[  2] =         0.002010282451;
  BAS[ATNO][  0].a[  3] =      1544.274102400000;     BAS[ATNO][  0].d[  3] =         0.008173377095;
  BAS[ATNO][  0].a[  4] =       507.888142690000;     BAS[ATNO][  0].d[  4] =         0.028162029062;
  BAS[ATNO][  0].a[  5] =       184.948477500000;     BAS[ATNO][  0].d[  5] =         0.082665479639;
  BAS[ATNO][  0].a[  6] =        72.522952039000;     BAS[ATNO][  0].d[  6] =         0.198321635753;
  BAS[ATNO][  0].a[  7] =        30.088713575000;     BAS[ATNO][  0].d[  7] =         0.349190961128;
  BAS[ATNO][  0].a[  8] =       120.684349400000;     BAS[ATNO][  0].d[  8] =         0.002531177132;
  BAS[ATNO][  0].a[  9] =        36.074294857000;     BAS[ATNO][  0].d[  9] =         0.001831317954;
  BAS[ATNO][  0].a[ 10] =        13.052091210000;     BAS[ATNO][  0].d[ 10] =         0.354777562754;
  BAS[ATNO][  0].a[ 11] =         5.797478335300;     BAS[ATNO][  0].d[ 11] =         0.120645051223;
  BAS[ATNO][  0].a[ 12] =         2.047862689500;     BAS[ATNO][  0].d[ 12] =         0.002281354484;
  BAS[ATNO][  0].a[ 13] =         0.802145719900;     BAS[ATNO][  0].d[ 13] =         0.000048777047;
  BAS[ATNO][  0].a[ 14] =         0.305486722000;     BAS[ATNO][  0].d[ 14] =        -0.000043721546;

  // Basis function   2 L = s
  InitBFNGauss(BAS[ATNO][  1]);
  BAS[ATNO][  1].l  = 0;
  BAS[ATNO][  1].ng = 15;
  BAS[ATNO][  1].a[  0] =    160676.279550000007;     BAS[ATNO][  1].d[  0] =        -0.000018839379;
  BAS[ATNO][  1].a[  1] =     23953.195038999998;     BAS[ATNO][  1].d[  1] =        -0.000131514806;
  BAS[ATNO][  1].a[  2] =      5437.506371100000;     BAS[ATNO][  1].d[  2] =        -0.000665196434;
  BAS[ATNO][  1].a[  3] =      1544.274102400000;     BAS[ATNO][  1].d[  3] =        -0.002704545966;
  BAS[ATNO][  1].a[  4] =       507.888142690000;     BAS[ATNO][  1].d[  4] =        -0.009318730950;
  BAS[ATNO][  1].a[  5] =       184.948477500000;     BAS[ATNO][  1].d[  5] =        -0.027353759275;
  BAS[ATNO][  1].a[  6] =        72.522952039000;     BAS[ATNO][  1].d[  6] =        -0.065624034446;
  BAS[ATNO][  1].a[  7] =        30.088713575000;     BAS[ATNO][  1].d[  7] =        -0.115546241711;
  BAS[ATNO][  1].a[  8] =       120.684349400000;     BAS[ATNO][  1].d[  8] =        -0.005624186972;
  BAS[ATNO][  1].a[  9] =        36.074294857000;     BAS[ATNO][  1].d[  9] =        -0.041025323633;
  BAS[ATNO][  1].a[ 10] =        13.052091210000;     BAS[ATNO][  1].d[ 10] =        -0.263221815254;
  BAS[ATNO][  1].a[ 11] =         5.797478335300;     BAS[ATNO][  1].d[ 11] =         0.018924001359;
  BAS[ATNO][  1].a[ 12] =         2.047862689500;     BAS[ATNO][  1].d[ 12] =         0.815676604805;
  BAS[ATNO][  1].a[ 13] =         0.802145719900;     BAS[ATNO][  1].d[ 13] =         0.314258743733;
  BAS[ATNO][  1].a[ 14] =         0.305486722000;     BAS[ATNO][  1].d[ 14] =        -0.015630298882;

  // Basis function   3 L = s
  InitBFNGauss(BAS[ATNO][  2]);
  BAS[ATNO][  2].l  = 0;
  BAS[ATNO][  2].ng = 15;
  BAS[ATNO][  2].a[  0] =    160676.279550000007;     BAS[ATNO][  2].d[  0] =         0.000009937475;
  BAS[ATNO][  2].a[  1] =     23953.195038999998;     BAS[ATNO][  2].d[  1] =         0.000069371984;
  BAS[ATNO][  2].a[  2] =      5437.506371100000;     BAS[ATNO][  2].d[  2] =         0.000350880618;
  BAS[ATNO][  2].a[  3] =      1544.274102400000;     BAS[ATNO][  2].d[  3] =         0.001426605304;
  BAS[ATNO][  2].a[  4] =       507.888142690000;     BAS[ATNO][  2].d[  4] =         0.004915483475;
  BAS[ATNO][  2].a[  5] =       184.948477500000;     BAS[ATNO][  2].d[  5] =         0.014428676223;
  BAS[ATNO][  2].a[  6] =        72.522952039000;     BAS[ATNO][  2].d[  6] =         0.034615642257;
  BAS[ATNO][  2].a[  7] =        30.088713575000;     BAS[ATNO][  2].d[  7] =         0.060948818539;
  BAS[ATNO][  2].a[  8] =       120.684349400000;     BAS[ATNO][  2].d[  8] =         0.002389463789;
  BAS[ATNO][  2].a[  9] =        36.074294857000;     BAS[ATNO][  2].d[  9] =         0.029232379755;
  BAS[ATNO][  2].a[ 10] =        13.052091210000;     BAS[ATNO][  2].d[ 10] =         0.137910307208;
  BAS[ATNO][  2].a[ 11] =         5.797478335300;     BAS[ATNO][  2].d[ 11] =         0.033406286468;
  BAS[ATNO][  2].a[ 12] =         2.047862689500;     BAS[ATNO][  2].d[ 12] =        -1.058564939764;
  BAS[ATNO][  2].a[ 13] =         0.802145719900;     BAS[ATNO][  2].d[ 13] =         0.246237471505;
  BAS[ATNO][  2].a[ 14] =         0.305486722000;     BAS[ATNO][  2].d[ 14] =         1.080053063905;

  // Basis function   4 L = s
  InitBFNGauss(BAS[ATNO][  3]);
  BAS[ATNO][  3].l  = 0;
  BAS[ATNO][  3].ng = 15;
  BAS[ATNO][  3].a[  0] =    160676.279550000007;     BAS[ATNO][  3].d[  0] =         0.000012189437;
  BAS[ATNO][  3].a[  1] =     23953.195038999998;     BAS[ATNO][  3].d[  1] =         0.000085092586;
  BAS[ATNO][  3].a[  2] =      5437.506371100000;     BAS[ATNO][  3].d[  2] =         0.000430394768;
  BAS[ATNO][  3].a[  3] =      1544.274102400000;     BAS[ATNO][  3].d[  3] =         0.001749892776;
  BAS[ATNO][  3].a[  4] =       507.888142690000;     BAS[ATNO][  3].d[  4] =         0.006029396494;
  BAS[ATNO][  3].a[  5] =       184.948477500000;     BAS[ATNO][  3].d[  5] =         0.017698403478;
  BAS[ATNO][  3].a[  6] =        72.522952039000;     BAS[ATNO][  3].d[  6] =         0.042460000756;
  BAS[ATNO][  3].a[  7] =        30.088713575000;     BAS[ATNO][  3].d[  7] =         0.074760620127;
  BAS[ATNO][  3].a[  8] =       120.684349400000;     BAS[ATNO][  3].d[  8] =        -0.002709065284;
  BAS[ATNO][  3].a[  9] =        36.074294857000;     BAS[ATNO][  3].d[  9] =         0.058592894261;
  BAS[ATNO][  3].a[ 10] =        13.052091210000;     BAS[ATNO][  3].d[ 10] =         0.051317242741;
  BAS[ATNO][  3].a[ 11] =         5.797478335300;     BAS[ATNO][  3].d[ 11] =         0.366512609626;
  BAS[ATNO][  3].a[ 12] =         2.047862689500;     BAS[ATNO][  3].d[ 12] =        -2.786178560966;
  BAS[ATNO][  3].a[ 13] =         0.802145719900;     BAS[ATNO][  3].d[ 13] =         4.173015501738;
  BAS[ATNO][  3].a[ 14] =         0.305486722000;     BAS[ATNO][  3].d[ 14] =        -2.210119183176;

  // Basis function   5 L = s
  InitBFNGauss(BAS[ATNO][  4]);
  BAS[ATNO][  4].l  = 0;
  BAS[ATNO][  4].ng = 15;
  BAS[ATNO][  4].a[  0] =    160676.279550000007;     BAS[ATNO][  4].d[  0] =        -0.000021984713;
  BAS[ATNO][  4].a[  1] =     23953.195038999998;     BAS[ATNO][  4].d[  1] =        -0.000153471896;
  BAS[ATNO][  4].a[  2] =      5437.506371100000;     BAS[ATNO][  4].d[  2] =        -0.000776254481;
  BAS[ATNO][  4].a[  3] =      1544.274102400000;     BAS[ATNO][  4].d[  3] =        -0.003156084158;
  BAS[ATNO][  4].a[  4] =       507.888142690000;     BAS[ATNO][  4].d[  4] =        -0.010874542155;
  BAS[ATNO][  4].a[  5] =       184.948477500000;     BAS[ATNO][  4].d[  5] =        -0.031920613431;
  BAS[ATNO][  4].a[  6] =        72.522952039000;     BAS[ATNO][  4].d[  6] =        -0.076580312575;
  BAS[ATNO][  4].a[  7] =        30.088713575000;     BAS[ATNO][  4].d[  7] =        -0.134837295235;
  BAS[ATNO][  4].a[  8] =       120.684349400000;     BAS[ATNO][  4].d[  8] =        -0.073323232713;
  BAS[ATNO][  4].a[  9] =        36.074294857000;     BAS[ATNO][  4].d[  9] =         0.148473500136;
  BAS[ATNO][  4].a[ 10] =        13.052091210000;     BAS[ATNO][  4].d[ 10] =        -2.132286258429;
  BAS[ATNO][  4].a[ 11] =         5.797478335300;     BAS[ATNO][  4].d[ 11] =         4.957803837025;
  BAS[ATNO][  4].a[ 12] =         2.047862689500;     BAS[ATNO][  4].d[ 12] =        -4.919655047391;
  BAS[ATNO][  4].a[ 13] =         0.802145719900;     BAS[ATNO][  4].d[ 13] =         3.054594315459;
  BAS[ATNO][  4].a[ 14] =         0.305486722000;     BAS[ATNO][  4].d[ 14] =        -0.941299234982;

  // Basis function   6 L = s
  InitBFNGauss(BAS[ATNO][  5]);
  BAS[ATNO][  5].l  = 0;
  BAS[ATNO][  5].ng = 15;
  BAS[ATNO][  5].a[  0] =    160676.279550000007;     BAS[ATNO][  5].d[  0] =        -0.000076189852;
  BAS[ATNO][  5].a[  1] =     23953.195038999998;     BAS[ATNO][  5].d[  1] =        -0.000531869627;
  BAS[ATNO][  5].a[  2] =      5437.506371100000;     BAS[ATNO][  5].d[  2] =        -0.002690174501;
  BAS[ATNO][  5].a[  3] =      1544.274102400000;     BAS[ATNO][  5].d[  3] =        -0.010937672280;
  BAS[ATNO][  5].a[  4] =       507.888142690000;     BAS[ATNO][  5].d[  4] =        -0.037686630758;
  BAS[ATNO][  5].a[  5] =       184.948477500000;     BAS[ATNO][  5].d[  5] =        -0.110623542102;
  BAS[ATNO][  5].a[  6] =        72.522952039000;     BAS[ATNO][  5].d[  6] =        -0.265395445817;
  BAS[ATNO][  5].a[  7] =        30.088713575000;     BAS[ATNO][  5].d[  7] =        -0.467289867048;
  BAS[ATNO][  5].a[  8] =       120.684349400000;     BAS[ATNO][  5].d[  8] =         0.229867077124;
  BAS[ATNO][  5].a[  9] =        36.074294857000;     BAS[ATNO][  5].d[  9] =        -1.826103809699;
  BAS[ATNO][  5].a[ 10] =        13.052091210000;     BAS[ATNO][  5].d[ 10] =         5.695304992097;
  BAS[ATNO][  5].a[ 11] =         5.797478335300;     BAS[ATNO][  5].d[ 11] =        -5.224415769673;
  BAS[ATNO][  5].a[ 12] =         2.047862689500;     BAS[ATNO][  5].d[ 12] =         2.814785720502;
  BAS[ATNO][  5].a[ 13] =         0.802145719900;     BAS[ATNO][  5].d[ 13] =        -1.395865885426;
  BAS[ATNO][  5].a[ 14] =         0.305486722000;     BAS[ATNO][  5].d[ 14] =         0.400026530772;

  // Basis function   7 L = s
  InitBFNGauss(BAS[ATNO][  6]);
  BAS[ATNO][  6].l  = 0;
  BAS[ATNO][  6].ng = 15;
  BAS[ATNO][  6].a[  0] =    160676.279550000007;     BAS[ATNO][  6].d[  0] =         0.000011424717;
  BAS[ATNO][  6].a[  1] =     23953.195038999998;     BAS[ATNO][  6].d[  1] =         0.000079754189;
  BAS[ATNO][  6].a[  2] =      5437.506371100000;     BAS[ATNO][  6].d[  2] =         0.000403393376;
  BAS[ATNO][  6].a[  3] =      1544.274102400000;     BAS[ATNO][  6].d[  3] =         0.001640110909;
  BAS[ATNO][  6].a[  4] =       507.888142690000;     BAS[ATNO][  6].d[  4] =         0.005651134231;
  BAS[ATNO][  6].a[  5] =       184.948477500000;     BAS[ATNO][  6].d[  5] =         0.016588070437;
  BAS[ATNO][  6].a[  6] =        72.522952039000;     BAS[ATNO][  6].d[  6] =         0.039796215754;
  BAS[ATNO][  6].a[  7] =        30.088713575000;     BAS[ATNO][  6].d[  7] =         0.070070412518;
  BAS[ATNO][  6].a[  8] =       120.684349400000;     BAS[ATNO][  6].d[  8] =         1.972405828991;
  BAS[ATNO][  6].a[  9] =        36.074294857000;     BAS[ATNO][  6].d[  9] =        -3.762558125948;
  BAS[ATNO][  6].a[ 10] =        13.052091210000;     BAS[ATNO][  6].d[ 10] =         3.876747588581;
  BAS[ATNO][  6].a[ 11] =         5.797478335300;     BAS[ATNO][  6].d[ 11] =        -2.681577555048;
  BAS[ATNO][  6].a[ 12] =         2.047862689500;     BAS[ATNO][  6].d[ 12] =         1.284427794866;
  BAS[ATNO][  6].a[ 13] =         0.802145719900;     BAS[ATNO][  6].d[ 13] =        -0.628877551214;
  BAS[ATNO][  6].a[ 14] =         0.305486722000;     BAS[ATNO][  6].d[ 14] =         0.181153758335;

  // Basis function   8 L = s
  InitBFNGauss(BAS[ATNO][  7]);
  BAS[ATNO][  7].l  = 0;
  BAS[ATNO][  7].ng = 15;
  BAS[ATNO][  7].a[  0] =    160676.279550000007;     BAS[ATNO][  7].d[  0] =        -0.001886852889;
  BAS[ATNO][  7].a[  1] =     23953.195038999998;     BAS[ATNO][  7].d[  1] =        -0.013171829433;
  BAS[ATNO][  7].a[  2] =      5437.506371100000;     BAS[ATNO][  7].d[  2] =        -0.066622566682;
  BAS[ATNO][  7].a[  3] =      1544.274102400000;     BAS[ATNO][  7].d[  3] =        -0.270873060727;
  BAS[ATNO][  7].a[  4] =       507.888142690000;     BAS[ATNO][  7].d[  4] =        -0.933314946750;
  BAS[ATNO][  7].a[  5] =       184.948477500000;     BAS[ATNO][  7].d[  5] =        -2.739608270325;
  BAS[ATNO][  7].a[  6] =        72.522952039000;     BAS[ATNO][  7].d[  6] =        -6.572557201220;
  BAS[ATNO][  7].a[  7] =        30.088713575000;     BAS[ATNO][  7].d[  7] =       -11.572502200504;
  BAS[ATNO][  7].a[  8] =       120.684349400000;     BAS[ATNO][  7].d[  8] =         7.828875615053;
  BAS[ATNO][  7].a[  9] =        36.074294857000;     BAS[ATNO][  7].d[  9] =        11.796600298986;
  BAS[ATNO][  7].a[ 10] =        13.052091210000;     BAS[ATNO][  7].d[ 10] =         3.106569243501;
  BAS[ATNO][  7].a[ 11] =         5.797478335300;     BAS[ATNO][  7].d[ 11] =        -1.625108472656;
  BAS[ATNO][  7].a[ 12] =         2.047862689500;     BAS[ATNO][  7].d[ 12] =         0.725407823719;
  BAS[ATNO][  7].a[ 13] =         0.802145719900;     BAS[ATNO][  7].d[ 13] =        -0.351734520916;
  BAS[ATNO][  7].a[ 14] =         0.305486722000;     BAS[ATNO][  7].d[ 14] =         0.101241047111;

  // Basis function   9 L = p
  InitBFNGauss(BAS[ATNO][  8]);
  BAS[ATNO][  8].l  = 1;
  BAS[ATNO][  8].ng = 9;
  BAS[ATNO][  8].a[  0] =       498.433974660000;     BAS[ATNO][  8].d[  0] =         0.000834420755;
  BAS[ATNO][  8].a[  1] =       118.141092170000;     BAS[ATNO][  8].d[  1] =         0.006777194156;
  BAS[ATNO][  8].a[  2] =        38.032529735000;     BAS[ATNO][  8].d[  2] =         0.033902594914;
  BAS[ATNO][  8].a[  3] =        14.183731950000;     BAS[ATNO][  8].d[  3] =         0.120613377854;
  BAS[ATNO][  8].a[  4] =         5.786419072100;     BAS[ATNO][  8].d[  4] =         0.308934041448;
  BAS[ATNO][  8].a[  5] =         2.459962216000;     BAS[ATNO][  8].d[  5] =         0.540681330927;
  BAS[ATNO][  8].a[  6] =         1.042199949800;     BAS[ATNO][  8].d[  6] =         0.128763124566;
  BAS[ATNO][  8].a[  7] =         0.429877489200;     BAS[ATNO][  8].d[  7] =         0.034564128555;
  BAS[ATNO][  8].a[  8] =         0.168897084500;     BAS[ATNO][  8].d[  8] =        -0.010760894571;

  // Basis function  10 L = p
  InitBFNGauss(BAS[ATNO][  9]);
  BAS[ATNO][  9].l  = 1;
  BAS[ATNO][  9].ng = 9;
  BAS[ATNO][  9].a[  0] =       498.433974660000;     BAS[ATNO][  9].d[  0] =        -0.000561839857;
  BAS[ATNO][  9].a[  1] =       118.141092170000;     BAS[ATNO][  9].d[  1] =        -0.004563282695;
  BAS[ATNO][  9].a[  2] =        38.032529735000;     BAS[ATNO][  9].d[  2] =        -0.022827606992;
  BAS[ATNO][  9].a[  3] =        14.183731950000;     BAS[ATNO][  9].d[  3] =        -0.081212508797;
  BAS[ATNO][  9].a[  4] =         5.786419072100;     BAS[ATNO][  9].d[  4] =        -0.208014309897;
  BAS[ATNO][  9].a[  5] =         2.459962216000;     BAS[ATNO][  9].d[  5] =        -0.364056526112;
  BAS[ATNO][  9].a[  6] =         1.042199949800;     BAS[ATNO][  9].d[  6] =         0.345124803716;
  BAS[ATNO][  9].a[  7] =         0.429877489200;     BAS[ATNO][  9].d[  7] =         0.798927891520;
  BAS[ATNO][  9].a[  8] =         0.168897084500;     BAS[ATNO][  9].d[  8] =         0.026223505536;

  // Basis function  11 L = p
  InitBFNGauss(BAS[ATNO][ 10]);
  BAS[ATNO][ 10].l  = 1;
  BAS[ATNO][ 10].ng = 9;
  BAS[ATNO][ 10].a[  0] =       498.433974660000;     BAS[ATNO][ 10].d[  0] =         0.000397680144;
  BAS[ATNO][ 10].a[  1] =       118.141092170000;     BAS[ATNO][ 10].d[  1] =         0.003229971848;
  BAS[ATNO][ 10].a[  2] =        38.032529735000;     BAS[ATNO][ 10].d[  2] =         0.016157782209;
  BAS[ATNO][ 10].a[  3] =        14.183731950000;     BAS[ATNO][ 10].d[  3] =         0.057483643826;
  BAS[ATNO][ 10].a[  4] =         5.786419072100;     BAS[ATNO][ 10].d[  4] =         0.147236191544;
  BAS[ATNO][ 10].a[  5] =         2.459962216000;     BAS[ATNO][ 10].d[  5] =         0.257685619983;
  BAS[ATNO][ 10].a[  6] =         1.042199949800;     BAS[ATNO][ 10].d[  6] =        -0.514107525712;
  BAS[ATNO][ 10].a[  7] =         0.429877489200;     BAS[ATNO][ 10].d[  7] =        -0.681374933083;
  BAS[ATNO][ 10].a[  8] =         0.168897084500;     BAS[ATNO][ 10].d[  8] =         1.363296430139;

  // Basis function  12 L = p
  InitBFNGauss(BAS[ATNO][ 11]);
  BAS[ATNO][ 11].l  = 1;
  BAS[ATNO][ 11].ng = 9;
  BAS[ATNO][ 11].a[  0] =       498.433974660000;     BAS[ATNO][ 11].d[  0] =         0.000882736279;
  BAS[ATNO][ 11].a[  1] =       118.141092170000;     BAS[ATNO][ 11].d[  1] =         0.007169614509;
  BAS[ATNO][ 11].a[  2] =        38.032529735000;     BAS[ATNO][ 11].d[  2] =         0.035865659266;
  BAS[ATNO][ 11].a[  3] =        14.183731950000;     BAS[ATNO][ 11].d[  3] =         0.127597262806;
  BAS[ATNO][ 11].a[  4] =         5.786419072100;     BAS[ATNO][ 11].d[  4] =         0.326822271109;
  BAS[ATNO][ 11].a[  5] =         2.459962216000;     BAS[ATNO][ 11].d[  5] =         0.571988440289;
  BAS[ATNO][ 11].a[  6] =         1.042199949800;     BAS[ATNO][ 11].d[  6] =        -2.572081876228;
  BAS[ATNO][ 11].a[  7] =         0.429877489200;     BAS[ATNO][ 11].d[  7] =         2.843288399427;
  BAS[ATNO][ 11].a[  8] =         0.168897084500;     BAS[ATNO][ 11].d[  8] =        -1.311713436040;

  // Basis function  13 L = d
  InitBFNGauss(BAS[ATNO][ 12]);
  BAS[ATNO][ 12].l  = 2;
  BAS[ATNO][ 12].ng = 3;
  BAS[ATNO][ 12].a[  0] =         6.471000000000;     BAS[ATNO][ 12].d[  0] =         0.061869984614;
  BAS[ATNO][ 12].a[  1] =         2.213000000000;     BAS[ATNO][ 12].d[  1] =         0.329557688153;
  BAS[ATNO][ 12].a[  2] =         0.747000000000;     BAS[ATNO][ 12].d[  2] =         0.740284270146;

  // Basis function  14 L = d
  InitBFNGauss(BAS[ATNO][ 13]);
  BAS[ATNO][ 13].l  = 2;
  BAS[ATNO][ 13].ng = 3;
  BAS[ATNO][ 13].a[  0] =         6.471000000000;     BAS[ATNO][ 13].d[  0] =         0.068844163122;
  BAS[ATNO][ 13].a[  1] =         2.213000000000;     BAS[ATNO][ 13].d[  1] =         1.146187790396;
  BAS[ATNO][ 13].a[  2] =         0.747000000000;     BAS[ATNO][ 13].d[  2] =        -1.015497490823;

  // Basis function  15 L = d
  InitBFNGauss(BAS[ATNO][ 14]);
  BAS[ATNO][ 14].l  = 2;
  BAS[ATNO][ 14].ng = 3;
  BAS[ATNO][ 14].a[  0] =         6.471000000000;     BAS[ATNO][ 14].d[  0] =         1.341017399414;
  BAS[ATNO][ 14].a[  1] =         2.213000000000;     BAS[ATNO][ 14].d[  1] =        -1.171193368176;
  BAS[ATNO][ 14].a[  2] =         0.747000000000;     BAS[ATNO][ 14].d[  2] =         0.450676177335;

  // Basis function  16 L = f
  InitBFNGauss(BAS[ATNO][ 15]);
  BAS[ATNO][ 15].l  = 3;
  BAS[ATNO][ 15].ng = 2;
  BAS[ATNO][ 15].a[  0] =         4.657000000000;     BAS[ATNO][ 15].d[  0] =        -0.020701138519;
  BAS[ATNO][ 15].a[  1] =         1.524000000000;     BAS[ATNO][ 15].d[  1] =         1.010454590150;

  // Basis function  17 L = f
  InitBFNGauss(BAS[ATNO][ 16]);
  BAS[ATNO][ 16].l  = 3;
  BAS[ATNO][ 16].ng = 2;
  BAS[ATNO][ 16].a[  0] =         4.657000000000;     BAS[ATNO][ 16].d[  0] =         1.164510530208;
  BAS[ATNO][ 16].a[  1] =         1.524000000000;     BAS[ATNO][ 16].d[  1] =        -0.579219158303;

  // Basis function  18 L = g
  InitBFNGauss(BAS[ATNO][ 17]);
  BAS[ATNO][ 17].l  = 4;
  BAS[ATNO][ 17].ng = 1;
  BAS[ATNO][ 17].a[  0] =         2.983000000000;     BAS[ATNO][ 17].d[  0] =         1.000000000000;

-------
TIMINGS
-------

Total SCF time: 0 days 0 hours 0 min 1 sec 

Total time                  ....       1.481 sec
Sum of individual times     ....       1.299 sec  ( 87.7%)

Fock matrix formation       ....       0.886 sec  ( 59.8%)
  XC integration            ....       0.019 sec  (  2.1% of F)
    Basis function eval.    ....       0.003 sec  ( 15.1% of XC)
    Density eval.           ....       0.001 sec  (  7.7% of XC)
    XC-Functional eval.     ....       0.001 sec  (  6.8% of XC)
    XC-Potential eval.      ....       0.002 sec  ( 10.0% of XC)
Diagonalization             ....       0.002 sec  (  0.1%)
Density matrix formation    ....       0.001 sec  (  0.0%)
Population analysis         ....       0.001 sec  (  0.1%)
Initial guess               ....       0.096 sec  (  6.5%)
Orbital Transformation      ....       0.000 sec  (  0.0%)
Orbital Orthonormalization  ....       0.000 sec  (  0.0%)
DIIS solution               ....       0.000 sec  (  0.0%)
SOSCF solution              ....       0.001 sec  (  0.0%)
Grid generation             ....       0.314 sec  ( 21.2%)

-------------------------   --------------------
FINAL SINGLE POINT ENERGY       -93.212657547958
-------------------------   --------------------


                            ***************************************
                            *     ORCA property calculations      *
                            ***************************************

                                    ---------------------
                                    Active property flags
                                    ---------------------
   (+) Dipole Moment


------------------------------------------------------------------------------
                       ORCA ELECTRIC PROPERTIES CALCULATION
------------------------------------------------------------------------------

Dipole Moment Calculation                       ... on
Quadrupole Moment Calculation                   ... off
Polarizability Calculation                      ... off
GBWName                                         ... Ne_zora-def2-qzvpp_4385.151648_.gbw
Electron density file                           ... Ne_zora-def2-qzvpp_4385.151648_.scfp
The origin for moment calculation is the CENTER OF MASS  = ( 0.000000,  0.000000  0.000000)

-------------
DIPOLE MOMENT
-------------
                                X             Y             Z
Electronic contribution:      0.00000      -0.00000       0.00000
Nuclear contribution   :      0.00000       0.00000       0.00000
                        -----------------------------------------
Total Dipole Moment    :      0.00000      -0.00000       0.00000
                        -----------------------------------------
Magnitude (a.u.)       :      0.00000
Magnitude (Debye)      :      0.00000



--------------------
Rotational spectrum 
--------------------
 
Rotational constants in cm-1:     0.000000     0.000000     0.000000 
Rotational constants in MHz :     0.000000     0.000000     0.000000 

 Dipole components along the rotational axes: 
x,y,z [a.u.] :     0.000000    -0.000000     0.000000 
x,y,z [Debye]:     0.000000    -0.000000     0.000000 

 

Timings for individual modules:

Sum of individual times         ...        2.608 sec (=   0.043 min)
GTO integral calculation        ...        0.508 sec (=   0.008 min)  19.5 %
Relativistic integrals          ...        0.367 sec (=   0.006 min)  14.1 %
SCF iterations                  ...        1.733 sec (=   0.029 min)  66.5 %
                             ****ORCA TERMINATED NORMALLY****
TOTAL RUN TIME: 0 days 0 hours 0 minutes 2 seconds 911 msec
