
                                 *****************
                                 * O   R   C   A *
                                 *****************

           --- An Ab Initio, DFT and Semiempirical electronic structure package ---

                  #######################################################
                  #                        -***-                        #
                  #          Department of theory and spectroscopy      #
                  #               Directorship: Frank Neese             #
                  #        Max Planck Institute fuer Kohlenforschung    #
                  #                Kaiser Wilhelm Platz 1               #
                  #                 D-45470 Muelheim/Ruhr               #
                  #                      Germany                        #
                  #                                                     #
                  #                  All rights reserved                #
                  #                        -***-                        #
                  #######################################################


                         Program Version 4.2.1 -  RELEASE  -


 With contributions from (in alphabetic order):
   Daniel Aravena         : Magnetic Suceptibility
   Michael Atanasov       : Ab Initio Ligand Field Theory (pilot matlab implementation)
   Alexander A. Auer      : GIAO ZORA, VPT2
   Ute Becker             : Parallelization
   Giovanni Bistoni       : ED, misc. LED, open-shell LED, HFLD
   Martin Brehm           : Molecular dynamics
   Dmytro Bykov           : SCF Hessian
   Vijay G. Chilkuri      : MRCI spin determinant printing, contributions to CSF-ICE
   Dipayan Datta          : RHF DLPNO-CCSD density
   Achintya Kumar Dutta   : EOM-CC, STEOM-CC
   Dmitry Ganyushin       : Spin-Orbit,Spin-Spin,Magnetic field MRCI
   Miquel Garcia          : C-PCM Hessian, Gaussian charge scheme
   Yang Guo               : DLPNO-NEVPT2, CIM, IAO-localization
   Andreas Hansen         : Spin unrestricted coupled pair/coupled cluster methods
   Benjamin Helmich-Paris : CASSCF linear response (MC-RPA)
   Lee Huntington         : MR-EOM, pCC
   Robert Izsak           : Overlap fitted RIJCOSX, COSX-SCS-MP3, EOM
   Christian Kollmar      : KDIIS, OOCD, Brueckner-CCSD(T), CCSD density
   Simone Kossmann        : Meta GGA functionals, TD-DFT gradient, OOMP2, MP2 Hessian
   Martin Krupicka        : AUTO-CI
   Lucas Lang             : DCDCAS
   Dagmar Lenk            : GEPOL surface, SMD
   Dimitrios Liakos       : Extrapolation schemes; Compound Job, initial MDCI parallelization
   Dimitrios Manganas     : Further ROCIS development; embedding schemes
   Dimitrios Pantazis     : SARC Basis sets
   Taras Petrenko         : DFT Hessian,TD-DFT gradient, ASA, ECA, R-Raman, ABS, FL, XAS/XES, NRVS
   Peter Pinski           : DLPNO-MP2, DLPNO-MP2 Gradient
   Christoph Reimann      : Effective Core Potentials
   Marius Retegan         : Local ZFS, SOC
   Christoph Riplinger    : Optimizer, TS searches, QM/MM, DLPNO-CCSD(T), (RO)-DLPNO pert. Triples
   Tobias Risthaus        : Range-separated hybrids, TD-DFT gradient, RPA, STAB
   Michael Roemelt        : Original ROCIS implementation
   Masaaki Saitow         : Open-shell DLPNO-CCSD energy and density
   Barbara Sandhoefer     : DKH picture change effects
   Avijit Sen             : IP-ROCIS
   Kantharuban Sivalingam : CASSCF convergence, NEVPT2, FIC-MRCI
   Bernardo de Souza      : ESD, SOC TD-DFT
   Georgi Stoychev        : AutoAux, RI-MP2 NMR
   Willem Van den Heuvel  : Paramagnetic NMR
   Boris Wezisla          : Elementary symmetry handling
   Frank Wennmohs         : Technical directorship


 We gratefully acknowledge several colleagues who have allowed us to
 interface, adapt or use parts of their codes:
   Stefan Grimme, W. Hujo, H. Kruse,             : VdW corrections, initial TS optimization,
                  C. Bannwarth                     DFT functionals, gCP, sTDA/sTD-DF
   Ed Valeev, F. Pavosevic, A. Kumar             : LibInt (2-el integral package), F12 methods
   Garnet Chan, S. Sharma, J. Yang, R. Olivares  : DMRG
   Ulf Ekstrom                                   : XCFun DFT Library
   Mihaly Kallay                                 : mrcc  (arbitrary order and MRCC methods)
   Andreas Klamt, Michael Diedenhofen            : otool_cosmo (COSMO solvation model)
   Jiri Pittner, Ondrej Demel                    : Mk-CCSD
   Frank Weinhold                                : gennbo (NPA and NBO analysis)
   Christopher J. Cramer and Donald G. Truhlar   : smd solvation model
   Lars Goerigk                                  : TD-DFT with DH, B97 family of functionals
   V. Asgeirsson, H. Jonsson                     : NEB implementation
   FAccTs GmbH                                   : IRC, NEB, NEB-TS, Multilevel, MM, QM/MM, CI optimization
   S Lehtola, MJT Oliveira, MAL Marques          : LibXC Library


 Your calculation uses the libint2 library for the computation of 2-el integrals
 For citations please refer to: http://libint.valeyev.net

 Your ORCA version has been built with support for libXC version: 4.2.3
 For citations please refer to: https://tddft.org/programs/libxc/

 This ORCA versions uses:
   CBLAS   interface :  Fast vector & matrix operations
   LAPACKE interface :  Fast linear algebra routines
   SCALAPACK package :  Parallel linear algebra routines


----- Orbital basis set information -----
Your calculation utilizes the basis: ZORA-def2-QZVPP 
   Exponents from def2-QZVPP [F. Weigend and R. Ahlrichs, Phys. Chem. Chem. Phys. 7, 3297 (2005)],
   recontracted for ZORA by D. A. Pantazis.

================================================================================
                                        WARNINGS
                       Please study these warnings very carefully!
================================================================================


INFO   : the flag for use of LIBINT has been found!

================================================================================
                                       INPUT FILE
================================================================================
NAME = Ne_zora-def2-qzvpp_68.5179945_.inp
|  1> ! LDA zora-def2-qzvpp nori grid5 finalgrid6 verytightscf
|  2> %Pal NProcs 18 End
|  3> 
|  4> % REL
|  5>   Method ZORA
|  6>   ModelPot 1, 0, 0, 0
|  7>   velit 68.5179945
|  8> END
|  9> 
| 10> *xyz 8 1
| 11> Ne 0.0 0.0 0.0
| 12> **                         ****END OF INPUT****
================================================================================

                       ****************************
                       * Single Point Calculation *
                       ****************************

---------------------------------
CARTESIAN COORDINATES (ANGSTROEM)
---------------------------------
  Ne     0.000000    0.000000    0.000000

----------------------------
CARTESIAN COORDINATES (A.U.)
----------------------------
  NO LB      ZA    FRAG     MASS         X           Y           Z
   0 Ne   10.0000    0    20.179    0.000000    0.000000    0.000000

--------------------------------
INTERNAL COORDINATES (ANGSTROEM)
--------------------------------
 Ne     0   0   0     0.000000000000     0.00000000     0.00000000

---------------------------
INTERNAL COORDINATES (A.U.)
---------------------------
 Ne     0   0   0     0.000000000000     0.00000000     0.00000000

---------------------
BASIS SET INFORMATION
---------------------
There are 1 groups of distinct atoms

 Group   1 Type Ne  : 15s9p3d2f1g contracted to 8s4p3d2f1g pattern {81111111/6111/111/11/1}

Atom   0Ne   basis set group =>   1


           ************************************************************
           *        Program running with 18 parallel MPI-processes    *
           *              working on a common directory               *
           ************************************************************
------------------------------------------------------------------------------
                           ORCA GTO INTEGRAL CALCULATION
------------------------------------------------------------------------------

                         BASIS SET STATISTICS AND STARTUP INFO

 # of primitive gaussian shells          ...   30
 # of primitive gaussian functions       ...   80
 # of contracted shells                  ...   18
 # of contracted basis functions         ...   58
 Highest angular momentum                ...    4
 Maximum contraction depth               ...    8
 Integral package used                   ... LIBINT
 Integral threshhold            Thresh   ...  1.000e-12
 Primitive cut-off              TCut     ...  1.000e-14


------------------------------ INTEGRAL EVALUATION ----------------------------


 * One electron integrals 
 Pre-screening matrix                    ... done
 Shell pair data                         ... done (   0.000 sec)



           ************************************************************
           *        Program running with 18 parallel MPI-processes    *
           *              working on a common directory               *
           ************************************************************
------------------------------------------------------------------------------
                          ORCA RELATIVISTIC HAMILTONIAN
------------------------------------------------------------------------------

Relativistic Method            ... ZORA(MP)
Treatment of potential         ... Van Wuellen
Nucleus model                  ... Point Nucleus
Speed of light used            ...  68.51799450000000


            *************************************************
            *         ZERO ORDER REGULAR APPROXIMATION      *
            *                     ZORA(MP)                  *
            *            Programmed by FN according to      *
            *                   C. van Wuellen              *
            *       J. Chem. Phys. (1998) vol 109, 392-399  *
            *************************************************

Terms included in model potential: +V(e,N)
Basis function cutoff value   ... 1.000000e-12
Loading the fitted atomic densities  (DKH4)  ... done
Calculating the cutoffs                      ... done
Number of fit functions                      ... 11
Setting up the integration grid ... done


           ************************************************************
           *        Program running with 18 parallel MPI-processes    *
           *              working on a common directory               *
           ************************************************************
-------------------------------------------------------------------------------
                                 ORCA SCF
-------------------------------------------------------------------------------

------------
SCF SETTINGS
------------
Hamiltonian:
 Density Functional     Method          .... DFT(GTOs)
 Exchange Functional    Exchange        .... Slater
   X-Alpha parameter    XAlpha          ....  0.666667
 Correlation Functional Correlation     .... VWN-5
 Gradients option       PostSCFGGA      .... off
   Density functional embedding theory  .... OFF

Relativistic Settings:
 Scalar relativistic method             .... ZORA
 Speed of light used       Velit        ....       68.5179945
Orbital energies will be scaled


General Settings:
 Integral files         IntName         .... Ne_zora-def2-qzvpp_68.5179945_
 Hartree-Fock type      HFTyp           .... RHF
 Total Charge           Charge          ....    8
 Multiplicity           Mult            ....    1
 Number of Electrons    NEL             ....    2
 Basis Dimension        Dim             ....   58
 Nuclear Repulsion      ENuc            ....      0.0000000000 Eh

Convergence Acceleration:
 DIIS                   CNVDIIS         .... on
   Start iteration      DIISMaxIt       ....    12
   Startup error        DIISStart       ....  0.200000
   # of expansion vecs  DIISMaxEq       ....     5
   Bias factor          DIISBfac        ....   1.050
   Max. coefficient     DIISMaxC        ....  10.000
 Newton-Raphson         CNVNR           .... off
 SOSCF                  CNVSOSCF        .... on
   Start iteration      SOSCFMaxIt      ....   150
   Startup grad/error   SOSCFStart      ....  0.003300
 Level Shifting         CNVShift        .... on
   Level shift para.    LevelShift      ....    0.2500
   Turn off err/grad.   ShiftErr        ....    0.0010
 Zerner damping         CNVZerner       .... off
 Static damping         CNVDamp         .... on
   Fraction old density DampFac         ....    0.7000
   Max. Damping (<1)    DampMax         ....    0.9800
   Min. Damping (>=0)   DampMin         ....    0.0000
   Turn off err/grad.   DampErr         ....    0.1000
 Fernandez-Rico         CNVRico         .... off

SCF Procedure:
 Maximum # iterations   MaxIter         ....   125
 SCF integral mode      SCFMode         .... Direct
   Integral package                     .... LIBINT
 Reset frequency        DirectResetFreq ....    20
 Integral Threshold     Thresh          ....  1.000e-12 Eh
 Primitive CutOff       TCut            ....  1.000e-14 Eh

Convergence Tolerance:
 Convergence Check Mode ConvCheckMode   .... Total+1el-Energy
 Convergence forced     ConvForced      .... 0
 Energy Change          TolE            ....  1.000e-09 Eh
 1-El. energy change                    ....  1.000e-06 Eh
 Orbital Gradient       TolG            ....  2.000e-06
 Orbital Rotation angle TolX            ....  2.000e-06
 DIIS Error             TolErr          ....  1.000e-08


Diagonalization of the overlap matrix:
Smallest eigenvalue                        ... 1.609e-03
Time for diagonalization                   ...    0.002 sec
Threshold for overlap eigenvalues          ... 1.000e-08
Number of eigenvalues below threshold      ... 0
Time for construction of square roots      ...    0.001 sec
Total time needed                          ...    0.003 sec

-------------------
DFT GRID GENERATION
-------------------

General Integration Accuracy     IntAcc      ...  5.010
Radial Grid Type                 RadialGrid  ... Gauss-Chebyshev
Angular Grid (max. acc.)         AngularGrid ... Lebedev-434
Angular grid pruning method      GridPruning ... 3 (G Style)
Weight generation scheme         WeightScheme... Becke
Basis function cutoff            BFCut       ...    1.0000e-12
Integration weight cutoff        WCut        ...    1.0000e-14
Grids for H and He will be reduced by one unit

# of grid points (after initial pruning)     ...  10818 (   0.0 sec)
# of grid points (after weights+screening)   ...  10818 (   0.0 sec)
Grid point division into batches done        ...    0.1 sec
Reduced shell lists constructed in    0.1 sec

Total number of grid points                  ...    10818
Total number of batches                      ...      170
Average number of points per batch           ...       63
Average number of grid points per atom       ...    10818
Average number of shells per batch           ...     0.00 ( 0.00%)
Average number of basis functions per batch  ...     0.00 ( 0.00%)
Average number of large shells per batch     ...     0.00 ( -nan%)
Average number of large basis fcns per batch ...     0.00 ( -nan%)
Maximum spatial batch extension              ...  16.29, 16.29, 16.29 au
Average spatial batch extension              ...   0.85,  0.86,  0.85 au

Time for grid setup =    0.121 sec

------------------------------
INITIAL GUESS: MODEL POTENTIAL
------------------------------
Loading ZORA relativistic densities                ... done
Calculating cut-offs                               ... done
Setting up the integral package                    ... done
Initializing the effective Hamiltonian             ... done
Starting the Coulomb interaction                   ... done (   0.0 sec)
Reading the grid                                   ... done
Mapping shells                                     ... done
Starting the XC term evaluation                    ... done (   0.0 sec)
  promolecular density results
     # of electrons  =     10.000000334
     EX              =    -11.053709298
     EC              =     -0.746638772
     EX+EC           =    -11.800348070
Transforming the Hamiltonian                       ... done (   0.0 sec)
Diagonalizing the Hamiltonian                      ... done (   0.0 sec)
Back transforming the eigenvectors                 ... done (   0.0 sec)
Now organizing SCF variables                       ... done
                      ------------------
                      INITIAL GUESS DONE (   0.2 sec)
                      ------------------
--------------
SCF ITERATIONS
--------------
ITER       Energy         Delta-E        Max-DP      RMS-DP      [F,P]     Damp
               ***  Starting incremental Fock matrix formation  ***
  0    -94.1897746350   0.000000000000 0.00542490  0.00015532  0.7926947 0.7000
  1    -94.1931132659  -0.003338630869 0.00380304  0.00010868  0.5444356 0.7000
  2    -94.1954020760  -0.002288810082 0.00264430  0.00007538  0.3728823 0.7000
                      *** Initiating the SOSCF procedure ***
                      *** Re-Reading the Fockian *** 
                      *** Removing any level shift *** 
ITER      Energy       Delta-E        Grad      Rot      Max-DP    RMS-DP
  3    -94.19698171  -0.0015796350  0.002685  0.002685  0.006130  0.000174
               *** Restarting incremental Fock matrix formation ***
  4    -94.20059947  -0.0036177606  0.006112  0.000102  0.000350  0.000007
  5    -94.20060202  -0.0000025442  0.000330  0.000006  0.000019  0.000000
                  ***Gradient check signals convergence***
              ***Rediagonalizing the Fockian in SOSCF/NRSCF***

               *****************************************************
               *                     SUCCESS                       *
               *           SCF CONVERGED AFTER   6 CYCLES          *
               *****************************************************

Setting up the final grid:

General Integration Accuracy     IntAcc      ...  5.340
Radial Grid Type                 RadialGrid  ... Gauss-Chebyshev
Angular Grid (max. acc.)         AngularGrid ... Lebedev-590
Angular grid pruning method      GridPruning ... 3 (G Style)
Weight generation scheme         WeightScheme... Becke
Basis function cutoff            BFCut       ...    1.0000e-12
Integration weight cutoff        WCut        ...    1.0000e-14
Grids for H and He will be reduced by one unit

# of grid points (after initial pruning)     ...  16840 (   0.0 sec)
# of grid points (after weights+screening)   ...  16840 (   0.0 sec)
Grid point division into batches done        ...    0.2 sec
Reduced shell lists constructed in    0.2 sec

Total number of grid points                  ...    16840
Total number of batches                      ...      264
Average number of points per batch           ...       63
Average number of grid points per atom       ...    16840
Average number of shells per batch           ...     0.00 ( 0.00%)
Average number of basis functions per batch  ...     0.00 ( 0.00%)
Average number of large shells per batch     ...     0.00 ( -nan%)
Average number of large basis fcns per batch ...     0.00 ( -nan%)
Maximum spatial batch extension              ...  16.63, 16.63, 16.63 au
Average spatial batch extension              ...   0.74,  0.74,  0.69 au

Final grid set up in    0.2 sec
Final integration                            ... done (   0.0 sec)
Change in XC energy                          ...    -0.000000117
Integrated number of electrons               ...     2.000000001
Previous integrated no of electrons          ...     2.000000000

----------------
TOTAL SCF ENERGY
----------------

Total Energy       :          -94.20060214 Eh           -2563.32870 eV

Components:
Nuclear Repulsion  :            0.00000000 Eh               0.00000 eV
Electronic Energy  :          -94.20060214 Eh           -2563.32870 eV
One Electron Energy:         -100.92682289 Eh           -2746.35847 eV
Two Electron Energy:            6.72622075 Eh             183.02977 eV

Virial components:
Potential Energy   :         -189.24672037 Eh           -5149.66507 eV
Kinetic Energy     :           95.04611823 Eh            2586.33636 eV
Virial Ratio       :            1.99110415


DFT components:
N(Alpha)           :        1.000000000316 electrons
N(Beta)            :        1.000000000316 electrons
N(Total)           :        2.000000000632 electrons
E(X)               :       -5.214792921688 Eh       
E(C)               :       -0.203356246451 Eh       
E(XC)              :       -5.418149168139 Eh       
DFET-embed. en.    :        0.000000000000 Eh       

---------------
SCF CONVERGENCE
---------------

  Last Energy change         ...   -7.9904e-09  Tolerance :   1.0000e-09
  Last MAX-Density change    ...    4.0795e-09  Tolerance :   1.0000e-08
  Last RMS-Density change    ...    1.2241e-10  Tolerance :   1.0000e-09
  Last Orbital Gradient      ...    4.0087e-08  Tolerance :   2.0000e-06
  Last Orbital Rotation      ...    4.3500e-10  Tolerance :   2.0000e-06

             **** THE GBW FILE WAS UPDATED (Ne_zora-def2-qzvpp_68.5179945_.gbw) ****
             **** DENSITY FILE WAS UPDATED (Ne_zora-def2-qzvpp_68.5179945_.scfp) ****
             **** ENERGY FILE WAS UPDATED (Ne_zora-def2-qzvpp_68.5179945_.en.tmp) ****
             **** THE GBW FILE WAS UPDATED (Ne_zora-def2-qzvpp_68.5179945_.gbw) ****
             **** DENSITY FILE WAS UPDATED (Ne_zora-def2-qzvpp_68.5179945_.scfp) ****
----------------
ORBITAL ENERGIES
----------------

  NO   OCC          E(Eh)            E(eV) 
   0   2.0000     -41.906462     -1140.3328 
   1   0.0000      -9.117138      -248.0899 
   2   0.0000      -8.636475      -235.0104 
   3   0.0000      -8.636475      -235.0104 
   4   0.0000      -8.636475      -235.0104 
   5   0.0000      -3.850889      -104.7880 
   6   0.0000      -3.713163      -101.0403 
   7   0.0000      -3.713163      -101.0403 
   8   0.0000      -3.713163      -101.0403 
   9   0.0000      -3.589261       -97.6688 
  10   0.0000      -3.589261       -97.6688 
  11   0.0000      -3.589261       -97.6688 
  12   0.0000      -3.589261       -97.6688 
  13   0.0000      -3.589261       -97.6688 
  14   0.0000      -2.059790       -56.0497 
  15   0.0000      -2.059790       -56.0497 
  16   0.0000      -2.059790       -56.0497 
  17   0.0000      -1.525306       -41.5057 
  18   0.0000      -0.513829       -13.9820 
  19   0.0000      -0.513829       -13.9820 
  20   0.0000      -0.513829       -13.9820 
  21   0.0000      -0.435946       -11.8627 
  22   0.0000      -0.435946       -11.8627 
  23   0.0000      -0.435946       -11.8627 
  24   0.0000      -0.435946       -11.8627 
  25   0.0000      -0.435946       -11.8627 
  26   0.0000      -0.382654       -10.4126 
  27   0.0000      -0.382654       -10.4126 
  28   0.0000      -0.382654       -10.4126 
  29   0.0000      -0.382654       -10.4126 
  30   0.0000      -0.382654       -10.4126 
  31   0.0000      -0.382654       -10.4126 
  32   0.0000      -0.382654       -10.4126 
  33   0.0000       7.366188       200.4442 
  34   0.0000       7.366188       200.4442 
  35   0.0000       7.366188       200.4442 
  36   0.0000       7.366188       200.4442 
  37   0.0000       7.366188       200.4442 
  38   0.0000       7.366188       200.4442 
  39   0.0000       7.366188       200.4442 
  40   0.0000       7.366188       200.4442 
  41   0.0000       7.366188       200.4442 
  42   0.0000       8.642801       235.1826 
  43   0.0000      10.902083       296.6608 
  44   0.0000      10.902083       296.6608 
  45   0.0000      10.902083       296.6608 
  46   0.0000      10.902083       296.6608 
  47   0.0000      10.902083       296.6608 
  48   0.0000      10.902083       296.6608 
  49   0.0000      10.902083       296.6608 
  50   0.0000      11.240942       305.8816 
  51   0.0000      11.240942       305.8816 
  52   0.0000      11.240942       305.8816 
  53   0.0000      11.240942       305.8816 
  54   0.0000      11.240942       305.8816 
  55   0.0000      50.052971      1362.0106 
  56   0.0000     211.029946      5742.4168 
  57   0.0000    1094.872806     29793.0037 

                    ********************************
                    * MULLIKEN POPULATION ANALYSIS *
                    ********************************

-----------------------
MULLIKEN ATOMIC CHARGES
-----------------------
   0 Ne:    8.000000
Sum of atomic charges:    8.0000000

--------------------------------
MULLIKEN REDUCED ORBITAL CHARGES
--------------------------------
  0 Nes       :     2.000000  s :     2.000000
      pz      :     0.000000  p :     0.000000
      px      :     0.000000
      py      :     0.000000
      dz2     :     0.000000  d :     0.000000
      dxz     :     0.000000
      dyz     :     0.000000
      dx2y2   :     0.000000
      dxy     :     0.000000
      f0      :     0.000000  f :     0.000000
      f+1     :     0.000000
      f-1     :     0.000000
      f+2     :     0.000000
      f-2     :     0.000000
      f+3     :     0.000000
      f-3     :     0.000000
      g0      :     0.000000  g :     0.000000
      g+1     :     0.000000
      g-1     :     0.000000
      g+2     :     0.000000
      g-2     :     0.000000
      g+3     :     0.000000
      g-3     :     0.000000
      g+4     :     0.000000
      g-4     :     0.000000


                     *******************************
                     * LOEWDIN POPULATION ANALYSIS *
                     *******************************

----------------------
LOEWDIN ATOMIC CHARGES
----------------------
   0 Ne:    8.000000

-------------------------------
LOEWDIN REDUCED ORBITAL CHARGES
-------------------------------
  0 Nes       :     2.000000  s :     2.000000
      pz      :     0.000000  p :     0.000000
      px      :     0.000000
      py      :     0.000000
      dz2     :     0.000000  d :     0.000000
      dxz     :     0.000000
      dyz     :     0.000000
      dx2y2   :     0.000000
      dxy     :     0.000000
      f0      :     0.000000  f :     0.000000
      f+1     :     0.000000
      f-1     :     0.000000
      f+2     :     0.000000
      f-2     :     0.000000
      f+3     :     0.000000
      f-3     :     0.000000
      g0      :     0.000000  g :     0.000000
      g+1     :     0.000000
      g-1     :     0.000000
      g+2     :     0.000000
      g-2     :     0.000000
      g+3     :     0.000000
      g-3     :     0.000000
      g+4     :     0.000000
      g-4     :     0.000000


                      *****************************
                      * MAYER POPULATION ANALYSIS *
                      *****************************

  NA   - Mulliken gross atomic population
  ZA   - Total nuclear charge
  QA   - Mulliken gross atomic charge
  VA   - Mayer's total valence
  BVA  - Mayer's bonded valence
  FA   - Mayer's free valence

  ATOM       NA         ZA         QA         VA         BVA        FA
  0 Ne     2.0000    10.0000     8.0000    -0.0000     0.0000    -0.0000

  Mayer bond orders larger than 0.100000


--------------------------
ATOM BASIS FOR ELEMENT Ne
--------------------------
 NewGTO Ne
 S 15
    1     160676.279550000007         0.000061910132
    2      23953.195038999998         0.000432185097
    3       5437.506371100000         0.002185974289
    4       1544.274102400000         0.008887702407
    5        507.888142690000         0.030623294455
    6        184.948477500000         0.089890160922
    7         72.522952039000         0.215654271046
    8         30.088713575000         0.379709061453
    9        120.684349400000        -0.008697645388
   10         36.074294857000        -0.028992687329
   11         13.052091210000         0.343576990973
   12          5.797478335300         0.118978509713
   13          2.047862689500         0.000345657402
   14          0.802145719900         0.000925163391
   15          0.305486722000        -0.000300413542
 S 15
    1     160676.279550000007         0.000020555814
    2      23953.195038999998         0.000143496974
    3       5437.506371100000         0.000725801741
    4       1544.274102400000         0.002950954140
    5        507.888142690000         0.010167750159
    6        184.948477500000         0.029845929846
    7         72.522952039000         0.071602967206
    8         30.088713575000         0.126073531228
    9        120.684349400000         0.002107725411
   10         36.074294857000         0.031460945744
   11         13.052091210000         0.259807285623
   12          5.797478335300        -0.031419500016
   13          2.047862689500        -0.818869075472
   14          0.802145719900        -0.301966084011
   15          0.305486722000         0.014756095491
 S 15
    1     160676.279550000007        -0.000010832777
    2      23953.195038999998        -0.000075621946
    3       5437.506371100000        -0.000382492666
    4       1544.274102400000        -0.001555133108
    5        507.888142690000        -0.005358336373
    6        184.948477500000        -0.015728605541
    7         72.522952039000        -0.037734285128
    8         30.088713575000        -0.066439908290
    9        120.684349400000        -0.000556205685
   10         36.074294857000        -0.024278045272
   11         13.052091210000        -0.136116032573
   12          5.797478335300        -0.023754630928
   13          2.047862689500         1.064836180189
   14          0.802145719900        -0.281053000272
   15          0.305486722000        -1.060171804845
 S 15
    1     160676.279550000007        -0.000013089348
    2      23953.195038999998        -0.000091374720
    3       5437.506371100000        -0.000462169539
    4       1544.274102400000        -0.001879082179
    5        507.888142690000        -0.006474528987
    6        184.948477500000        -0.019005024210
    7         72.522952039000        -0.045594696907
    8         30.088713575000        -0.080279975378
    9        120.684349400000         0.004796896987
   10         36.074294857000        -0.051827040195
   11         13.052091210000        -0.049916729001
   12          5.797478335300        -0.344665628280
   13          2.047862689500         2.744313600117
   14          0.802145719900        -4.155129978407
   15          0.305486722000         2.216180101796
 S 15
    1     160676.279550000007        -0.000024116947
    2      23953.195038999998        -0.000168356696
    3       5437.506371100000        -0.000851541181
    4       1544.274102400000        -0.003462183725
    5        507.888142690000        -0.011929232869
    6        184.948477500000        -0.035016502349
    7         72.522952039000        -0.084007617866
    8         30.088713575000        -0.147914778503
    9        120.684349400000        -0.068073281810
   10         36.074294857000         0.158893768952
   11         13.052091210000        -2.093987774895
   12          5.797478335300         4.928402985118
   13          2.047862689500        -4.929107526535
   14          0.802145719900         3.072064433146
   15          0.305486722000        -0.948278669499
 S 15
    1     160676.279550000007        -0.000080950720
    2      23953.195038999998        -0.000565104512
    3       5437.506371100000        -0.002858275172
    4       1544.274102400000        -0.011621133542
    5        507.888142690000        -0.040041551582
    6        184.948477500000        -0.117536064598
    7         72.522952039000        -0.281979185179
    8         30.088713575000        -0.496489363437
    9        120.684349400000         0.238741816088
   10         36.074294857000        -1.768035784924
   11         13.052091210000         5.695458947381
   12          5.797478335300        -5.244286286685
   13          2.047862689500         2.831972279697
   14          0.802145719900        -1.405073079956
   15          0.305486722000         0.402674568347
 S 15
    1     160676.279550000007         0.000022183943
    2      23953.195038999998         0.000154862689
    3       5437.506371100000         0.000783289052
    4       1544.274102400000         0.003184685214
    5        507.888142690000         0.010973089399
    6        184.948477500000         0.032209884321
    7         72.522952039000         0.077274298459
    8         30.088713575000         0.136059217377
    9        120.684349400000         1.925558210117
   10         36.074294857000        -3.847252711439
   11         13.052091210000         3.889484817365
   12          5.797478335300        -2.695660644030
   13          2.047862689500         1.291590339575
   14          0.802145719900        -0.632324065782
   15          0.305486722000         0.182129509626
 S 15
    1     160676.279550000007        -0.001886347126
    2      23953.195038999998        -0.013168298779
    3       5437.506371100000        -0.066604708782
    4       1544.274102400000        -0.270800454336
    5        507.888142690000        -0.933064775584
    6        184.948477500000        -2.738873929792
    7         72.522952039000        -6.570795454765
    8         30.088713575000       -11.569400239714
    9        120.684349400000         7.840308345249
   10         36.074294857000        11.778015063437
   11         13.052091210000         3.118044215634
   12          5.797478335300        -1.632100755130
   13          2.047862689500         0.728441093718
   14          0.802145719900        -0.353153955730
   15          0.305486722000         0.101641076548
 P 9
    1        498.433974660000         0.000839221177
    2        118.141092170000         0.006816183345
    3         38.032529735000         0.034097636500
    4         14.183731950000         0.121307266465
    5          5.786419072100         0.310711338600
    6          2.459962216000         0.543791869943
    7          1.042199949800         0.120038899320
    8          0.429877489200         0.038306898307
    9          0.168897084500        -0.012091786890
 P 9
    1        498.433974660000         0.000564536223
    2        118.141092170000         0.004585182679
    3         38.032529735000         0.022937160630
    4         14.183731950000         0.081602261686
    5          5.786419072100         0.209012606582
    6          2.459962216000         0.365803696407
    7          1.042199949800        -0.358734492194
    8          0.429877489200        -0.789754657145
    9          0.168897084500        -0.026002381673
 P 9
    1        498.433974660000         0.000399513731
    2        118.141092170000         0.003244864304
    3         38.032529735000         0.016232281015
    4         14.183731950000         0.057748684091
    5          5.786419072100         0.147915054549
    6          2.459962216000         0.258873732992
    7          1.042199949800        -0.529146927970
    8          0.429877489200        -0.659939193822
    9          0.168897084500         1.355058593547
 P 9
    1        498.433974660000         0.000875608534
    2        118.141092170000         0.007111722715
    3         38.032529735000         0.035576058294
    4         14.183731950000         0.126566965524
    5          5.786419072100         0.324183310912
    6          2.459962216000         0.567369860526
    7          1.042199949800        -2.567587691547
    8          0.429877489200         2.850849276987
    9          0.168897084500        -1.320214617668
 D 3
    1          6.471000000000         0.062515660567
    2          2.213000000000         0.330646635620
    3          0.747000000000         0.739077081764
 D 3
    1          6.471000000000         0.070179129133
    2          2.213000000000         1.144494193193
    3          0.747000000000        -1.016033663718
 D 3
    1          6.471000000000         1.340918253042
    2          2.213000000000        -1.172541884299
    3          0.747000000000         0.451448372146
 F 2
    1          4.657000000000        -0.020313568341
    2          1.524000000000         1.010261760140
 F 2
    1          4.657000000000         1.164517355406
    2          1.524000000000        -0.579555422802
 G 1
    1          2.983000000000         1.000000000000
 end
  // -----------------------------------------------
  // The basis set
  // -----------------------------------------------
  BAS[ATNO] = new BFNGauss[NSH];
  // Basis function   1 L = s
  InitBFNGauss(BAS[ATNO][  0]);
  BAS[ATNO][  0].l  = 0;
  BAS[ATNO][  0].ng = 15;
  BAS[ATNO][  0].a[  0] =    160676.279550000007;     BAS[ATNO][  0].d[  0] =         0.000061910132;
  BAS[ATNO][  0].a[  1] =     23953.195038999998;     BAS[ATNO][  0].d[  1] =         0.000432185097;
  BAS[ATNO][  0].a[  2] =      5437.506371100000;     BAS[ATNO][  0].d[  2] =         0.002185974289;
  BAS[ATNO][  0].a[  3] =      1544.274102400000;     BAS[ATNO][  0].d[  3] =         0.008887702407;
  BAS[ATNO][  0].a[  4] =       507.888142690000;     BAS[ATNO][  0].d[  4] =         0.030623294455;
  BAS[ATNO][  0].a[  5] =       184.948477500000;     BAS[ATNO][  0].d[  5] =         0.089890160922;
  BAS[ATNO][  0].a[  6] =        72.522952039000;     BAS[ATNO][  0].d[  6] =         0.215654271046;
  BAS[ATNO][  0].a[  7] =        30.088713575000;     BAS[ATNO][  0].d[  7] =         0.379709061453;
  BAS[ATNO][  0].a[  8] =       120.684349400000;     BAS[ATNO][  0].d[  8] =        -0.008697645388;
  BAS[ATNO][  0].a[  9] =        36.074294857000;     BAS[ATNO][  0].d[  9] =        -0.028992687329;
  BAS[ATNO][  0].a[ 10] =        13.052091210000;     BAS[ATNO][  0].d[ 10] =         0.343576990973;
  BAS[ATNO][  0].a[ 11] =         5.797478335300;     BAS[ATNO][  0].d[ 11] =         0.118978509713;
  BAS[ATNO][  0].a[ 12] =         2.047862689500;     BAS[ATNO][  0].d[ 12] =         0.000345657402;
  BAS[ATNO][  0].a[ 13] =         0.802145719900;     BAS[ATNO][  0].d[ 13] =         0.000925163391;
  BAS[ATNO][  0].a[ 14] =         0.305486722000;     BAS[ATNO][  0].d[ 14] =        -0.000300413542;

  // Basis function   2 L = s
  InitBFNGauss(BAS[ATNO][  1]);
  BAS[ATNO][  1].l  = 0;
  BAS[ATNO][  1].ng = 15;
  BAS[ATNO][  1].a[  0] =    160676.279550000007;     BAS[ATNO][  1].d[  0] =        -0.000020555814;
  BAS[ATNO][  1].a[  1] =     23953.195038999998;     BAS[ATNO][  1].d[  1] =        -0.000143496974;
  BAS[ATNO][  1].a[  2] =      5437.506371100000;     BAS[ATNO][  1].d[  2] =        -0.000725801741;
  BAS[ATNO][  1].a[  3] =      1544.274102400000;     BAS[ATNO][  1].d[  3] =        -0.002950954140;
  BAS[ATNO][  1].a[  4] =       507.888142690000;     BAS[ATNO][  1].d[  4] =        -0.010167750159;
  BAS[ATNO][  1].a[  5] =       184.948477500000;     BAS[ATNO][  1].d[  5] =        -0.029845929846;
  BAS[ATNO][  1].a[  6] =        72.522952039000;     BAS[ATNO][  1].d[  6] =        -0.071602967206;
  BAS[ATNO][  1].a[  7] =        30.088713575000;     BAS[ATNO][  1].d[  7] =        -0.126073531228;
  BAS[ATNO][  1].a[  8] =       120.684349400000;     BAS[ATNO][  1].d[  8] =        -0.002107725411;
  BAS[ATNO][  1].a[  9] =        36.074294857000;     BAS[ATNO][  1].d[  9] =        -0.031460945744;
  BAS[ATNO][  1].a[ 10] =        13.052091210000;     BAS[ATNO][  1].d[ 10] =        -0.259807285623;
  BAS[ATNO][  1].a[ 11] =         5.797478335300;     BAS[ATNO][  1].d[ 11] =         0.031419500016;
  BAS[ATNO][  1].a[ 12] =         2.047862689500;     BAS[ATNO][  1].d[ 12] =         0.818869075472;
  BAS[ATNO][  1].a[ 13] =         0.802145719900;     BAS[ATNO][  1].d[ 13] =         0.301966084011;
  BAS[ATNO][  1].a[ 14] =         0.305486722000;     BAS[ATNO][  1].d[ 14] =        -0.014756095491;

  // Basis function   3 L = s
  InitBFNGauss(BAS[ATNO][  2]);
  BAS[ATNO][  2].l  = 0;
  BAS[ATNO][  2].ng = 15;
  BAS[ATNO][  2].a[  0] =    160676.279550000007;     BAS[ATNO][  2].d[  0] =        -0.000010832777;
  BAS[ATNO][  2].a[  1] =     23953.195038999998;     BAS[ATNO][  2].d[  1] =        -0.000075621946;
  BAS[ATNO][  2].a[  2] =      5437.506371100000;     BAS[ATNO][  2].d[  2] =        -0.000382492666;
  BAS[ATNO][  2].a[  3] =      1544.274102400000;     BAS[ATNO][  2].d[  3] =        -0.001555133108;
  BAS[ATNO][  2].a[  4] =       507.888142690000;     BAS[ATNO][  2].d[  4] =        -0.005358336373;
  BAS[ATNO][  2].a[  5] =       184.948477500000;     BAS[ATNO][  2].d[  5] =        -0.015728605541;
  BAS[ATNO][  2].a[  6] =        72.522952039000;     BAS[ATNO][  2].d[  6] =        -0.037734285128;
  BAS[ATNO][  2].a[  7] =        30.088713575000;     BAS[ATNO][  2].d[  7] =        -0.066439908290;
  BAS[ATNO][  2].a[  8] =       120.684349400000;     BAS[ATNO][  2].d[  8] =        -0.000556205685;
  BAS[ATNO][  2].a[  9] =        36.074294857000;     BAS[ATNO][  2].d[  9] =        -0.024278045272;
  BAS[ATNO][  2].a[ 10] =        13.052091210000;     BAS[ATNO][  2].d[ 10] =        -0.136116032573;
  BAS[ATNO][  2].a[ 11] =         5.797478335300;     BAS[ATNO][  2].d[ 11] =        -0.023754630928;
  BAS[ATNO][  2].a[ 12] =         2.047862689500;     BAS[ATNO][  2].d[ 12] =         1.064836180189;
  BAS[ATNO][  2].a[ 13] =         0.802145719900;     BAS[ATNO][  2].d[ 13] =        -0.281053000272;
  BAS[ATNO][  2].a[ 14] =         0.305486722000;     BAS[ATNO][  2].d[ 14] =        -1.060171804845;

  // Basis function   4 L = s
  InitBFNGauss(BAS[ATNO][  3]);
  BAS[ATNO][  3].l  = 0;
  BAS[ATNO][  3].ng = 15;
  BAS[ATNO][  3].a[  0] =    160676.279550000007;     BAS[ATNO][  3].d[  0] =         0.000013089348;
  BAS[ATNO][  3].a[  1] =     23953.195038999998;     BAS[ATNO][  3].d[  1] =         0.000091374720;
  BAS[ATNO][  3].a[  2] =      5437.506371100000;     BAS[ATNO][  3].d[  2] =         0.000462169539;
  BAS[ATNO][  3].a[  3] =      1544.274102400000;     BAS[ATNO][  3].d[  3] =         0.001879082179;
  BAS[ATNO][  3].a[  4] =       507.888142690000;     BAS[ATNO][  3].d[  4] =         0.006474528987;
  BAS[ATNO][  3].a[  5] =       184.948477500000;     BAS[ATNO][  3].d[  5] =         0.019005024210;
  BAS[ATNO][  3].a[  6] =        72.522952039000;     BAS[ATNO][  3].d[  6] =         0.045594696907;
  BAS[ATNO][  3].a[  7] =        30.088713575000;     BAS[ATNO][  3].d[  7] =         0.080279975378;
  BAS[ATNO][  3].a[  8] =       120.684349400000;     BAS[ATNO][  3].d[  8] =        -0.004796896987;
  BAS[ATNO][  3].a[  9] =        36.074294857000;     BAS[ATNO][  3].d[  9] =         0.051827040195;
  BAS[ATNO][  3].a[ 10] =        13.052091210000;     BAS[ATNO][  3].d[ 10] =         0.049916729001;
  BAS[ATNO][  3].a[ 11] =         5.797478335300;     BAS[ATNO][  3].d[ 11] =         0.344665628280;
  BAS[ATNO][  3].a[ 12] =         2.047862689500;     BAS[ATNO][  3].d[ 12] =        -2.744313600117;
  BAS[ATNO][  3].a[ 13] =         0.802145719900;     BAS[ATNO][  3].d[ 13] =         4.155129978407;
  BAS[ATNO][  3].a[ 14] =         0.305486722000;     BAS[ATNO][  3].d[ 14] =        -2.216180101796;

  // Basis function   5 L = s
  InitBFNGauss(BAS[ATNO][  4]);
  BAS[ATNO][  4].l  = 0;
  BAS[ATNO][  4].ng = 15;
  BAS[ATNO][  4].a[  0] =    160676.279550000007;     BAS[ATNO][  4].d[  0] =         0.000024116947;
  BAS[ATNO][  4].a[  1] =     23953.195038999998;     BAS[ATNO][  4].d[  1] =         0.000168356696;
  BAS[ATNO][  4].a[  2] =      5437.506371100000;     BAS[ATNO][  4].d[  2] =         0.000851541181;
  BAS[ATNO][  4].a[  3] =      1544.274102400000;     BAS[ATNO][  4].d[  3] =         0.003462183725;
  BAS[ATNO][  4].a[  4] =       507.888142690000;     BAS[ATNO][  4].d[  4] =         0.011929232869;
  BAS[ATNO][  4].a[  5] =       184.948477500000;     BAS[ATNO][  4].d[  5] =         0.035016502349;
  BAS[ATNO][  4].a[  6] =        72.522952039000;     BAS[ATNO][  4].d[  6] =         0.084007617866;
  BAS[ATNO][  4].a[  7] =        30.088713575000;     BAS[ATNO][  4].d[  7] =         0.147914778503;
  BAS[ATNO][  4].a[  8] =       120.684349400000;     BAS[ATNO][  4].d[  8] =         0.068073281810;
  BAS[ATNO][  4].a[  9] =        36.074294857000;     BAS[ATNO][  4].d[  9] =        -0.158893768952;
  BAS[ATNO][  4].a[ 10] =        13.052091210000;     BAS[ATNO][  4].d[ 10] =         2.093987774895;
  BAS[ATNO][  4].a[ 11] =         5.797478335300;     BAS[ATNO][  4].d[ 11] =        -4.928402985118;
  BAS[ATNO][  4].a[ 12] =         2.047862689500;     BAS[ATNO][  4].d[ 12] =         4.929107526535;
  BAS[ATNO][  4].a[ 13] =         0.802145719900;     BAS[ATNO][  4].d[ 13] =        -3.072064433146;
  BAS[ATNO][  4].a[ 14] =         0.305486722000;     BAS[ATNO][  4].d[ 14] =         0.948278669499;

  // Basis function   6 L = s
  InitBFNGauss(BAS[ATNO][  5]);
  BAS[ATNO][  5].l  = 0;
  BAS[ATNO][  5].ng = 15;
  BAS[ATNO][  5].a[  0] =    160676.279550000007;     BAS[ATNO][  5].d[  0] =        -0.000080950720;
  BAS[ATNO][  5].a[  1] =     23953.195038999998;     BAS[ATNO][  5].d[  1] =        -0.000565104512;
  BAS[ATNO][  5].a[  2] =      5437.506371100000;     BAS[ATNO][  5].d[  2] =        -0.002858275172;
  BAS[ATNO][  5].a[  3] =      1544.274102400000;     BAS[ATNO][  5].d[  3] =        -0.011621133542;
  BAS[ATNO][  5].a[  4] =       507.888142690000;     BAS[ATNO][  5].d[  4] =        -0.040041551582;
  BAS[ATNO][  5].a[  5] =       184.948477500000;     BAS[ATNO][  5].d[  5] =        -0.117536064598;
  BAS[ATNO][  5].a[  6] =        72.522952039000;     BAS[ATNO][  5].d[  6] =        -0.281979185179;
  BAS[ATNO][  5].a[  7] =        30.088713575000;     BAS[ATNO][  5].d[  7] =        -0.496489363437;
  BAS[ATNO][  5].a[  8] =       120.684349400000;     BAS[ATNO][  5].d[  8] =         0.238741816088;
  BAS[ATNO][  5].a[  9] =        36.074294857000;     BAS[ATNO][  5].d[  9] =        -1.768035784924;
  BAS[ATNO][  5].a[ 10] =        13.052091210000;     BAS[ATNO][  5].d[ 10] =         5.695458947381;
  BAS[ATNO][  5].a[ 11] =         5.797478335300;     BAS[ATNO][  5].d[ 11] =        -5.244286286685;
  BAS[ATNO][  5].a[ 12] =         2.047862689500;     BAS[ATNO][  5].d[ 12] =         2.831972279697;
  BAS[ATNO][  5].a[ 13] =         0.802145719900;     BAS[ATNO][  5].d[ 13] =        -1.405073079956;
  BAS[ATNO][  5].a[ 14] =         0.305486722000;     BAS[ATNO][  5].d[ 14] =         0.402674568347;

  // Basis function   7 L = s
  InitBFNGauss(BAS[ATNO][  6]);
  BAS[ATNO][  6].l  = 0;
  BAS[ATNO][  6].ng = 15;
  BAS[ATNO][  6].a[  0] =    160676.279550000007;     BAS[ATNO][  6].d[  0] =         0.000022183943;
  BAS[ATNO][  6].a[  1] =     23953.195038999998;     BAS[ATNO][  6].d[  1] =         0.000154862689;
  BAS[ATNO][  6].a[  2] =      5437.506371100000;     BAS[ATNO][  6].d[  2] =         0.000783289052;
  BAS[ATNO][  6].a[  3] =      1544.274102400000;     BAS[ATNO][  6].d[  3] =         0.003184685214;
  BAS[ATNO][  6].a[  4] =       507.888142690000;     BAS[ATNO][  6].d[  4] =         0.010973089399;
  BAS[ATNO][  6].a[  5] =       184.948477500000;     BAS[ATNO][  6].d[  5] =         0.032209884321;
  BAS[ATNO][  6].a[  6] =        72.522952039000;     BAS[ATNO][  6].d[  6] =         0.077274298459;
  BAS[ATNO][  6].a[  7] =        30.088713575000;     BAS[ATNO][  6].d[  7] =         0.136059217377;
  BAS[ATNO][  6].a[  8] =       120.684349400000;     BAS[ATNO][  6].d[  8] =         1.925558210117;
  BAS[ATNO][  6].a[  9] =        36.074294857000;     BAS[ATNO][  6].d[  9] =        -3.847252711439;
  BAS[ATNO][  6].a[ 10] =        13.052091210000;     BAS[ATNO][  6].d[ 10] =         3.889484817365;
  BAS[ATNO][  6].a[ 11] =         5.797478335300;     BAS[ATNO][  6].d[ 11] =        -2.695660644030;
  BAS[ATNO][  6].a[ 12] =         2.047862689500;     BAS[ATNO][  6].d[ 12] =         1.291590339575;
  BAS[ATNO][  6].a[ 13] =         0.802145719900;     BAS[ATNO][  6].d[ 13] =        -0.632324065782;
  BAS[ATNO][  6].a[ 14] =         0.305486722000;     BAS[ATNO][  6].d[ 14] =         0.182129509626;

  // Basis function   8 L = s
  InitBFNGauss(BAS[ATNO][  7]);
  BAS[ATNO][  7].l  = 0;
  BAS[ATNO][  7].ng = 15;
  BAS[ATNO][  7].a[  0] =    160676.279550000007;     BAS[ATNO][  7].d[  0] =        -0.001886347126;
  BAS[ATNO][  7].a[  1] =     23953.195038999998;     BAS[ATNO][  7].d[  1] =        -0.013168298779;
  BAS[ATNO][  7].a[  2] =      5437.506371100000;     BAS[ATNO][  7].d[  2] =        -0.066604708782;
  BAS[ATNO][  7].a[  3] =      1544.274102400000;     BAS[ATNO][  7].d[  3] =        -0.270800454336;
  BAS[ATNO][  7].a[  4] =       507.888142690000;     BAS[ATNO][  7].d[  4] =        -0.933064775584;
  BAS[ATNO][  7].a[  5] =       184.948477500000;     BAS[ATNO][  7].d[  5] =        -2.738873929792;
  BAS[ATNO][  7].a[  6] =        72.522952039000;     BAS[ATNO][  7].d[  6] =        -6.570795454765;
  BAS[ATNO][  7].a[  7] =        30.088713575000;     BAS[ATNO][  7].d[  7] =       -11.569400239714;
  BAS[ATNO][  7].a[  8] =       120.684349400000;     BAS[ATNO][  7].d[  8] =         7.840308345249;
  BAS[ATNO][  7].a[  9] =        36.074294857000;     BAS[ATNO][  7].d[  9] =        11.778015063437;
  BAS[ATNO][  7].a[ 10] =        13.052091210000;     BAS[ATNO][  7].d[ 10] =         3.118044215634;
  BAS[ATNO][  7].a[ 11] =         5.797478335300;     BAS[ATNO][  7].d[ 11] =        -1.632100755130;
  BAS[ATNO][  7].a[ 12] =         2.047862689500;     BAS[ATNO][  7].d[ 12] =         0.728441093718;
  BAS[ATNO][  7].a[ 13] =         0.802145719900;     BAS[ATNO][  7].d[ 13] =        -0.353153955730;
  BAS[ATNO][  7].a[ 14] =         0.305486722000;     BAS[ATNO][  7].d[ 14] =         0.101641076548;

  // Basis function   9 L = p
  InitBFNGauss(BAS[ATNO][  8]);
  BAS[ATNO][  8].l  = 1;
  BAS[ATNO][  8].ng = 9;
  BAS[ATNO][  8].a[  0] =       498.433974660000;     BAS[ATNO][  8].d[  0] =         0.000839221177;
  BAS[ATNO][  8].a[  1] =       118.141092170000;     BAS[ATNO][  8].d[  1] =         0.006816183345;
  BAS[ATNO][  8].a[  2] =        38.032529735000;     BAS[ATNO][  8].d[  2] =         0.034097636500;
  BAS[ATNO][  8].a[  3] =        14.183731950000;     BAS[ATNO][  8].d[  3] =         0.121307266465;
  BAS[ATNO][  8].a[  4] =         5.786419072100;     BAS[ATNO][  8].d[  4] =         0.310711338600;
  BAS[ATNO][  8].a[  5] =         2.459962216000;     BAS[ATNO][  8].d[  5] =         0.543791869943;
  BAS[ATNO][  8].a[  6] =         1.042199949800;     BAS[ATNO][  8].d[  6] =         0.120038899320;
  BAS[ATNO][  8].a[  7] =         0.429877489200;     BAS[ATNO][  8].d[  7] =         0.038306898307;
  BAS[ATNO][  8].a[  8] =         0.168897084500;     BAS[ATNO][  8].d[  8] =        -0.012091786890;

  // Basis function  10 L = p
  InitBFNGauss(BAS[ATNO][  9]);
  BAS[ATNO][  9].l  = 1;
  BAS[ATNO][  9].ng = 9;
  BAS[ATNO][  9].a[  0] =       498.433974660000;     BAS[ATNO][  9].d[  0] =        -0.000564536223;
  BAS[ATNO][  9].a[  1] =       118.141092170000;     BAS[ATNO][  9].d[  1] =        -0.004585182679;
  BAS[ATNO][  9].a[  2] =        38.032529735000;     BAS[ATNO][  9].d[  2] =        -0.022937160630;
  BAS[ATNO][  9].a[  3] =        14.183731950000;     BAS[ATNO][  9].d[  3] =        -0.081602261686;
  BAS[ATNO][  9].a[  4] =         5.786419072100;     BAS[ATNO][  9].d[  4] =        -0.209012606582;
  BAS[ATNO][  9].a[  5] =         2.459962216000;     BAS[ATNO][  9].d[  5] =        -0.365803696407;
  BAS[ATNO][  9].a[  6] =         1.042199949800;     BAS[ATNO][  9].d[  6] =         0.358734492194;
  BAS[ATNO][  9].a[  7] =         0.429877489200;     BAS[ATNO][  9].d[  7] =         0.789754657145;
  BAS[ATNO][  9].a[  8] =         0.168897084500;     BAS[ATNO][  9].d[  8] =         0.026002381673;

  // Basis function  11 L = p
  InitBFNGauss(BAS[ATNO][ 10]);
  BAS[ATNO][ 10].l  = 1;
  BAS[ATNO][ 10].ng = 9;
  BAS[ATNO][ 10].a[  0] =       498.433974660000;     BAS[ATNO][ 10].d[  0] =         0.000399513731;
  BAS[ATNO][ 10].a[  1] =       118.141092170000;     BAS[ATNO][ 10].d[  1] =         0.003244864304;
  BAS[ATNO][ 10].a[  2] =        38.032529735000;     BAS[ATNO][ 10].d[  2] =         0.016232281015;
  BAS[ATNO][ 10].a[  3] =        14.183731950000;     BAS[ATNO][ 10].d[  3] =         0.057748684091;
  BAS[ATNO][ 10].a[  4] =         5.786419072100;     BAS[ATNO][ 10].d[  4] =         0.147915054549;
  BAS[ATNO][ 10].a[  5] =         2.459962216000;     BAS[ATNO][ 10].d[  5] =         0.258873732992;
  BAS[ATNO][ 10].a[  6] =         1.042199949800;     BAS[ATNO][ 10].d[  6] =        -0.529146927970;
  BAS[ATNO][ 10].a[  7] =         0.429877489200;     BAS[ATNO][ 10].d[  7] =        -0.659939193822;
  BAS[ATNO][ 10].a[  8] =         0.168897084500;     BAS[ATNO][ 10].d[  8] =         1.355058593547;

  // Basis function  12 L = p
  InitBFNGauss(BAS[ATNO][ 11]);
  BAS[ATNO][ 11].l  = 1;
  BAS[ATNO][ 11].ng = 9;
  BAS[ATNO][ 11].a[  0] =       498.433974660000;     BAS[ATNO][ 11].d[  0] =         0.000875608534;
  BAS[ATNO][ 11].a[  1] =       118.141092170000;     BAS[ATNO][ 11].d[  1] =         0.007111722715;
  BAS[ATNO][ 11].a[  2] =        38.032529735000;     BAS[ATNO][ 11].d[  2] =         0.035576058294;
  BAS[ATNO][ 11].a[  3] =        14.183731950000;     BAS[ATNO][ 11].d[  3] =         0.126566965524;
  BAS[ATNO][ 11].a[  4] =         5.786419072100;     BAS[ATNO][ 11].d[  4] =         0.324183310912;
  BAS[ATNO][ 11].a[  5] =         2.459962216000;     BAS[ATNO][ 11].d[  5] =         0.567369860526;
  BAS[ATNO][ 11].a[  6] =         1.042199949800;     BAS[ATNO][ 11].d[  6] =        -2.567587691547;
  BAS[ATNO][ 11].a[  7] =         0.429877489200;     BAS[ATNO][ 11].d[  7] =         2.850849276987;
  BAS[ATNO][ 11].a[  8] =         0.168897084500;     BAS[ATNO][ 11].d[  8] =        -1.320214617668;

  // Basis function  13 L = d
  InitBFNGauss(BAS[ATNO][ 12]);
  BAS[ATNO][ 12].l  = 2;
  BAS[ATNO][ 12].ng = 3;
  BAS[ATNO][ 12].a[  0] =         6.471000000000;     BAS[ATNO][ 12].d[  0] =         0.062515660567;
  BAS[ATNO][ 12].a[  1] =         2.213000000000;     BAS[ATNO][ 12].d[  1] =         0.330646635620;
  BAS[ATNO][ 12].a[  2] =         0.747000000000;     BAS[ATNO][ 12].d[  2] =         0.739077081764;

  // Basis function  14 L = d
  InitBFNGauss(BAS[ATNO][ 13]);
  BAS[ATNO][ 13].l  = 2;
  BAS[ATNO][ 13].ng = 3;
  BAS[ATNO][ 13].a[  0] =         6.471000000000;     BAS[ATNO][ 13].d[  0] =         0.070179129133;
  BAS[ATNO][ 13].a[  1] =         2.213000000000;     BAS[ATNO][ 13].d[  1] =         1.144494193193;
  BAS[ATNO][ 13].a[  2] =         0.747000000000;     BAS[ATNO][ 13].d[  2] =        -1.016033663718;

  // Basis function  15 L = d
  InitBFNGauss(BAS[ATNO][ 14]);
  BAS[ATNO][ 14].l  = 2;
  BAS[ATNO][ 14].ng = 3;
  BAS[ATNO][ 14].a[  0] =         6.471000000000;     BAS[ATNO][ 14].d[  0] =         1.340918253042;
  BAS[ATNO][ 14].a[  1] =         2.213000000000;     BAS[ATNO][ 14].d[  1] =        -1.172541884299;
  BAS[ATNO][ 14].a[  2] =         0.747000000000;     BAS[ATNO][ 14].d[  2] =         0.451448372146;

  // Basis function  16 L = f
  InitBFNGauss(BAS[ATNO][ 15]);
  BAS[ATNO][ 15].l  = 3;
  BAS[ATNO][ 15].ng = 2;
  BAS[ATNO][ 15].a[  0] =         4.657000000000;     BAS[ATNO][ 15].d[  0] =        -0.020313568341;
  BAS[ATNO][ 15].a[  1] =         1.524000000000;     BAS[ATNO][ 15].d[  1] =         1.010261760140;

  // Basis function  17 L = f
  InitBFNGauss(BAS[ATNO][ 16]);
  BAS[ATNO][ 16].l  = 3;
  BAS[ATNO][ 16].ng = 2;
  BAS[ATNO][ 16].a[  0] =         4.657000000000;     BAS[ATNO][ 16].d[  0] =         1.164517355406;
  BAS[ATNO][ 16].a[  1] =         1.524000000000;     BAS[ATNO][ 16].d[  1] =        -0.579555422802;

  // Basis function  18 L = g
  InitBFNGauss(BAS[ATNO][ 17]);
  BAS[ATNO][ 17].l  = 4;
  BAS[ATNO][ 17].ng = 1;
  BAS[ATNO][ 17].a[  0] =         2.983000000000;     BAS[ATNO][ 17].d[  0] =         1.000000000000;

-------
TIMINGS
-------

Total SCF time: 0 days 0 hours 0 min 1 sec 

Total time                  ....       1.555 sec
Sum of individual times     ....       1.367 sec  ( 87.9%)

Fock matrix formation       ....       0.907 sec  ( 58.3%)
  XC integration            ....       0.020 sec  (  2.2% of F)
    Basis function eval.    ....       0.003 sec  ( 14.0% of XC)
    Density eval.           ....       0.001 sec  (  7.2% of XC)
    XC-Functional eval.     ....       0.001 sec  (  6.6% of XC)
    XC-Potential eval.      ....       0.002 sec  ( 10.0% of XC)
Diagonalization             ....       0.002 sec  (  0.1%)
Density matrix formation    ....       0.001 sec  (  0.0%)
Population analysis         ....       0.001 sec  (  0.1%)
Initial guess               ....       0.092 sec  (  5.9%)
Orbital Transformation      ....       0.000 sec  (  0.0%)
Orbital Orthonormalization  ....       0.000 sec  (  0.0%)
DIIS solution               ....       0.000 sec  (  0.0%)
SOSCF solution              ....       0.001 sec  (  0.1%)
Grid generation             ....       0.364 sec  ( 23.4%)

-------------------------   --------------------
FINAL SINGLE POINT ENERGY       -94.200602140701
-------------------------   --------------------


                            ***************************************
                            *     ORCA property calculations      *
                            ***************************************

                                    ---------------------
                                    Active property flags
                                    ---------------------
   (+) Dipole Moment


------------------------------------------------------------------------------
                       ORCA ELECTRIC PROPERTIES CALCULATION
------------------------------------------------------------------------------

Dipole Moment Calculation                       ... on
Quadrupole Moment Calculation                   ... off
Polarizability Calculation                      ... off
GBWName                                         ... Ne_zora-def2-qzvpp_68.5179945_.gbw
Electron density file                           ... Ne_zora-def2-qzvpp_68.5179945_.scfp
The origin for moment calculation is the CENTER OF MASS  = ( 0.000000,  0.000000  0.000000)

-------------
DIPOLE MOMENT
-------------
                                X             Y             Z
Electronic contribution:      0.00000      -0.00000       0.00000
Nuclear contribution   :      0.00000       0.00000       0.00000
                        -----------------------------------------
Total Dipole Moment    :      0.00000      -0.00000       0.00000
                        -----------------------------------------
Magnitude (a.u.)       :      0.00000
Magnitude (Debye)      :      0.00000



--------------------
Rotational spectrum 
--------------------
 
Rotational constants in cm-1:     0.000000     0.000000     0.000000 
Rotational constants in MHz :     0.000000     0.000000     0.000000 

 Dipole components along the rotational axes: 
x,y,z [a.u.] :     0.000000    -0.000000     0.000000 
x,y,z [Debye]:     0.000000    -0.000000     0.000000 

 

Timings for individual modules:

Sum of individual times         ...        2.655 sec (=   0.044 min)
GTO integral calculation        ...        0.500 sec (=   0.008 min)  18.8 %
Relativistic integrals          ...        0.347 sec (=   0.006 min)  13.1 %
SCF iterations                  ...        1.808 sec (=   0.030 min)  68.1 %
                             ****ORCA TERMINATED NORMALLY****
TOTAL RUN TIME: 0 days 0 hours 0 minutes 2 seconds 979 msec
