
                                 *****************
                                 * O   R   C   A *
                                 *****************

           --- An Ab Initio, DFT and Semiempirical electronic structure package ---

                  #######################################################
                  #                        -***-                        #
                  #          Department of theory and spectroscopy      #
                  #               Directorship: Frank Neese             #
                  #        Max Planck Institute fuer Kohlenforschung    #
                  #                Kaiser Wilhelm Platz 1               #
                  #                 D-45470 Muelheim/Ruhr               #
                  #                      Germany                        #
                  #                                                     #
                  #                  All rights reserved                #
                  #                        -***-                        #
                  #######################################################


                         Program Version 4.2.1 -  RELEASE  -


 With contributions from (in alphabetic order):
   Daniel Aravena         : Magnetic Suceptibility
   Michael Atanasov       : Ab Initio Ligand Field Theory (pilot matlab implementation)
   Alexander A. Auer      : GIAO ZORA, VPT2
   Ute Becker             : Parallelization
   Giovanni Bistoni       : ED, misc. LED, open-shell LED, HFLD
   Martin Brehm           : Molecular dynamics
   Dmytro Bykov           : SCF Hessian
   Vijay G. Chilkuri      : MRCI spin determinant printing, contributions to CSF-ICE
   Dipayan Datta          : RHF DLPNO-CCSD density
   Achintya Kumar Dutta   : EOM-CC, STEOM-CC
   Dmitry Ganyushin       : Spin-Orbit,Spin-Spin,Magnetic field MRCI
   Miquel Garcia          : C-PCM Hessian, Gaussian charge scheme
   Yang Guo               : DLPNO-NEVPT2, CIM, IAO-localization
   Andreas Hansen         : Spin unrestricted coupled pair/coupled cluster methods
   Benjamin Helmich-Paris : CASSCF linear response (MC-RPA)
   Lee Huntington         : MR-EOM, pCC
   Robert Izsak           : Overlap fitted RIJCOSX, COSX-SCS-MP3, EOM
   Christian Kollmar      : KDIIS, OOCD, Brueckner-CCSD(T), CCSD density
   Simone Kossmann        : Meta GGA functionals, TD-DFT gradient, OOMP2, MP2 Hessian
   Martin Krupicka        : AUTO-CI
   Lucas Lang             : DCDCAS
   Dagmar Lenk            : GEPOL surface, SMD
   Dimitrios Liakos       : Extrapolation schemes; Compound Job, initial MDCI parallelization
   Dimitrios Manganas     : Further ROCIS development; embedding schemes
   Dimitrios Pantazis     : SARC Basis sets
   Taras Petrenko         : DFT Hessian,TD-DFT gradient, ASA, ECA, R-Raman, ABS, FL, XAS/XES, NRVS
   Peter Pinski           : DLPNO-MP2, DLPNO-MP2 Gradient
   Christoph Reimann      : Effective Core Potentials
   Marius Retegan         : Local ZFS, SOC
   Christoph Riplinger    : Optimizer, TS searches, QM/MM, DLPNO-CCSD(T), (RO)-DLPNO pert. Triples
   Tobias Risthaus        : Range-separated hybrids, TD-DFT gradient, RPA, STAB
   Michael Roemelt        : Original ROCIS implementation
   Masaaki Saitow         : Open-shell DLPNO-CCSD energy and density
   Barbara Sandhoefer     : DKH picture change effects
   Avijit Sen             : IP-ROCIS
   Kantharuban Sivalingam : CASSCF convergence, NEVPT2, FIC-MRCI
   Bernardo de Souza      : ESD, SOC TD-DFT
   Georgi Stoychev        : AutoAux, RI-MP2 NMR
   Willem Van den Heuvel  : Paramagnetic NMR
   Boris Wezisla          : Elementary symmetry handling
   Frank Wennmohs         : Technical directorship


 We gratefully acknowledge several colleagues who have allowed us to
 interface, adapt or use parts of their codes:
   Stefan Grimme, W. Hujo, H. Kruse,             : VdW corrections, initial TS optimization,
                  C. Bannwarth                     DFT functionals, gCP, sTDA/sTD-DF
   Ed Valeev, F. Pavosevic, A. Kumar             : LibInt (2-el integral package), F12 methods
   Garnet Chan, S. Sharma, J. Yang, R. Olivares  : DMRG
   Ulf Ekstrom                                   : XCFun DFT Library
   Mihaly Kallay                                 : mrcc  (arbitrary order and MRCC methods)
   Andreas Klamt, Michael Diedenhofen            : otool_cosmo (COSMO solvation model)
   Jiri Pittner, Ondrej Demel                    : Mk-CCSD
   Frank Weinhold                                : gennbo (NPA and NBO analysis)
   Christopher J. Cramer and Donald G. Truhlar   : smd solvation model
   Lars Goerigk                                  : TD-DFT with DH, B97 family of functionals
   V. Asgeirsson, H. Jonsson                     : NEB implementation
   FAccTs GmbH                                   : IRC, NEB, NEB-TS, Multilevel, MM, QM/MM, CI optimization
   S Lehtola, MJT Oliveira, MAL Marques          : LibXC Library


 Your calculation uses the libint2 library for the computation of 2-el integrals
 For citations please refer to: http://libint.valeyev.net

 Your ORCA version has been built with support for libXC version: 4.2.3
 For citations please refer to: https://tddft.org/programs/libxc/

 This ORCA versions uses:
   CBLAS   interface :  Fast vector & matrix operations
   LAPACKE interface :  Fast linear algebra routines
   SCALAPACK package :  Parallel linear algebra routines




***************************************
The coordinates will be read from file: ../xyzfiles/Ar.xyz
***************************************


----- Orbital basis set information -----
Your calculation utilizes the basis: def2-QZVPPD
   F. Weigend and R. Ahlrichs, Phys. Chem. Chem. Phys. 7, 3297 (2005).
   D. Rappoport and F. Furche, J. Chem. Phys. 133 134105 (2010).

================================================================================
                                        WARNINGS
                       Please study these warnings very carefully!
================================================================================


INFO   : the flag for use of LIBINT has been found!

================================================================================
                                       INPUT FILE
================================================================================
NAME = Ar_14_.inp
|  1> 
|  2> ! pbe def2-qzvppd nori grid5 finalgrid6 tightscf
|  3> %pal nprocs 18 end
|  4> 
|  5> %rel
|  6>   method zora
|  7>   modelpot 1, 0, 0, 0
|  8>   c 13.703599908400001
|  9> end
| 10> 
| 11> *xyzfile 16 1 ../xyzfiles/Ar.xyz
| 12> 
| 13>                          ****END OF INPUT****
================================================================================

                       ****************************
                       * Single Point Calculation *
                       ****************************

---------------------------------
CARTESIAN COORDINATES (ANGSTROEM)
---------------------------------
  Ar     0.000000    0.000000    0.000000

----------------------------
CARTESIAN COORDINATES (A.U.)
----------------------------
  NO LB      ZA    FRAG     MASS         X           Y           Z
   0 Ar   18.0000    0    39.948    0.000000    0.000000    0.000000

--------------------------------
INTERNAL COORDINATES (ANGSTROEM)
--------------------------------
 Ar     0   0   0     0.000000000000     0.00000000     0.00000000

---------------------------
INTERNAL COORDINATES (A.U.)
---------------------------
 Ar     0   0   0     0.000000000000     0.00000000     0.00000000

---------------------
BASIS SET INFORMATION
---------------------
There are 1 groups of distinct atoms

 Group   1 Type Ar  : 21s15p5d2f1g contracted to 10s7p5d2f1g pattern {10311111111/8211111/11111/11/1}

Atom   0Ar   basis set group =>   1


           ************************************************************
           *        Program running with 18 parallel MPI-processes    *
           *              working on a common directory               *
           ************************************************************
------------------------------------------------------------------------------
                           ORCA GTO INTEGRAL CALCULATION
------------------------------------------------------------------------------

                         BASIS SET STATISTICS AND STARTUP INFO

 # of primitive gaussian shells          ...   44
 # of primitive gaussian functions       ...  114
 # of contracted shells                  ...   25
 # of contracted basis functions         ...   79
 Highest angular momentum                ...    4
 Maximum contraction depth               ...   10
 Integral package used                   ... LIBINT
 Integral threshhold            Thresh   ...  2.500e-11
 Primitive cut-off              TCut     ...  2.500e-12


------------------------------ INTEGRAL EVALUATION ----------------------------


 * One electron integrals 
 Pre-screening matrix                    ... done
 Shell pair data                         ... done (   0.000 sec)



           ************************************************************
           *        Program running with 18 parallel MPI-processes    *
           *              working on a common directory               *
           ************************************************************
------------------------------------------------------------------------------
                          ORCA RELATIVISTIC HAMILTONIAN
------------------------------------------------------------------------------

Relativistic Method            ... ZORA(MP)
Treatment of potential         ... Van Wuellen
Nucleus model                  ... Point Nucleus
Speed of light used            ...  13.70359990840000


            *************************************************
            *         ZERO ORDER REGULAR APPROXIMATION      *
            *                     ZORA(MP)                  *
            *            Programmed by FN according to      *
            *                   C. van Wuellen              *
            *       J. Chem. Phys. (1998) vol 109, 392-399  *
            *************************************************

Terms included in model potential: +V(e,N)
Basis function cutoff value   ... 1.000000e-11
Loading the fitted atomic densities  (DKH4)  ... done
Calculating the cutoffs                      ... done
Number of fit functions                      ... 15
Setting up the integration grid ... done


           ************************************************************
           *        Program running with 18 parallel MPI-processes    *
           *              working on a common directory               *
           ************************************************************
-------------------------------------------------------------------------------
                                 ORCA SCF
-------------------------------------------------------------------------------

------------
SCF SETTINGS
------------
Hamiltonian:
 Density Functional     Method          .... DFT(GTOs)
 Exchange Functional    Exchange        .... PBE
   PBE kappa parameter   XKappa         ....  0.804000
   PBE mue parameter    XMuePBE         ....  0.219520
 Correlation Functional Correlation     .... PBE
   PBE beta parameter  CBetaPBE         ....  0.066725
 LDA part of GGA corr.  LDAOpt          .... PW91-LDA
 Gradients option       PostSCFGGA      .... off
   Density functional embedding theory  .... OFF
   NL short-range parameter             ....  6.400000

Relativistic Settings:
 Scalar relativistic method             .... ZORA
 Speed of light used       Velit        ....       13.7035999
Orbital energies will be scaled


General Settings:
 Integral files         IntName         .... Ar_14_
 Hartree-Fock type      HFTyp           .... RHF
 Total Charge           Charge          ....   16
 Multiplicity           Mult            ....    1
 Number of Electrons    NEL             ....    2
 Basis Dimension        Dim             ....   79
 Nuclear Repulsion      ENuc            ....      0.0000000000 Eh

Convergence Acceleration:
 DIIS                   CNVDIIS         .... on
   Start iteration      DIISMaxIt       ....    12
   Startup error        DIISStart       ....  0.200000
   # of expansion vecs  DIISMaxEq       ....     5
   Bias factor          DIISBfac        ....   1.050
   Max. coefficient     DIISMaxC        ....  10.000
 Newton-Raphson         CNVNR           .... off
 SOSCF                  CNVSOSCF        .... on
   Start iteration      SOSCFMaxIt      ....   150
   Startup grad/error   SOSCFStart      ....  0.003300
 Level Shifting         CNVShift        .... on
   Level shift para.    LevelShift      ....    0.2500
   Turn off err/grad.   ShiftErr        ....    0.0010
 Zerner damping         CNVZerner       .... off
 Static damping         CNVDamp         .... on
   Fraction old density DampFac         ....    0.7000
   Max. Damping (<1)    DampMax         ....    0.9800
   Min. Damping (>=0)   DampMin         ....    0.0000
   Turn off err/grad.   DampErr         ....    0.1000
 Fernandez-Rico         CNVRico         .... off

SCF Procedure:
 Maximum # iterations   MaxIter         ....   125
 SCF integral mode      SCFMode         .... Direct
   Integral package                     .... LIBINT
 Reset frequency        DirectResetFreq ....    20
 Integral Threshold     Thresh          ....  2.500e-11 Eh
 Primitive CutOff       TCut            ....  2.500e-12 Eh

Convergence Tolerance:
 Convergence Check Mode ConvCheckMode   .... Total+1el-Energy
 Convergence forced     ConvForced      .... 0
 Energy Change          TolE            ....  1.000e-08 Eh
 1-El. energy change                    ....  1.000e-05 Eh
 Orbital Gradient       TolG            ....  1.000e-05
 Orbital Rotation angle TolX            ....  1.000e-05
 DIIS Error             TolErr          ....  5.000e-07


Diagonalization of the overlap matrix:
Smallest eigenvalue                        ... 1.555e-03
Time for diagonalization                   ...    0.073 sec
Threshold for overlap eigenvalues          ... 1.000e-08
Number of eigenvalues below threshold      ... 0
Time for construction of square roots      ...    0.001 sec
Total time needed                          ...    0.073 sec

-------------------
DFT GRID GENERATION
-------------------

General Integration Accuracy     IntAcc      ...  5.010
Radial Grid Type                 RadialGrid  ... Gauss-Chebyshev
Angular Grid (max. acc.)         AngularGrid ... Lebedev-434
Angular grid pruning method      GridPruning ... 3 (G Style)
Weight generation scheme         WeightScheme... Becke
Basis function cutoff            BFCut       ...    1.0000e-11
Integration weight cutoff        WCut        ...    1.0000e-14
Grids for H and He will be reduced by one unit

# of grid points (after initial pruning)     ...  11992 (   0.0 sec)
# of grid points (after weights+screening)   ...  11992 (   0.0 sec)
Grid point division into batches done        ...    0.1 sec
Reduced shell lists constructed in    0.1 sec

Total number of grid points                  ...    11992
Total number of batches                      ...      188
Average number of points per batch           ...       63
Average number of grid points per atom       ...    11992
Average number of shells per batch           ...     3.67 (14.67%)
Average number of basis functions per batch  ...    11.00 (13.92%)
Average number of large shells per batch     ...     2.25 (61.36%)
Average number of large basis fcns per batch ...     5.75 (52.27%)
Maximum spatial batch extension              ...  18.71, 18.71, 18.71 au
Average spatial batch extension              ...   0.97,  0.98,  0.97 au

Time for grid setup =    0.145 sec

------------------------------
INITIAL GUESS: MODEL POTENTIAL
------------------------------
Loading ZORA relativistic densities                ... done
Calculating cut-offs                               ... done
Setting up the integral package                    ... done
Initializing the effective Hamiltonian             ... done
Starting the Coulomb interaction                   ... done (   0.0 sec)
Reading the grid                                   ... done
Mapping shells                                     ... done
Starting the XC term evaluation                    ... done (   0.0 sec)
  promolecular density results
     # of electrons  =     18.000000112
     EX              =    -30.207076889
     EC              =     -0.707610969
     EX+EC           =    -30.914687858
Transforming the Hamiltonian                       ... done (   0.0 sec)
Diagonalizing the Hamiltonian                      ... done (   0.0 sec)
Back transforming the eigenvectors                 ... done (   0.0 sec)
Now organizing SCF variables                       ... done
                      ------------------
                      INITIAL GUESS DONE (   0.2 sec)
                      ------------------
--------------
SCF ITERATIONS
--------------
ITER       Energy         Delta-E        Max-DP      RMS-DP      [F,P]     Damp
               ***  Starting incremental Fock matrix formation  ***
  0   -680.1214632980   0.000000000000 0.30030031  0.00751438  1.7170126 0.7000
  1   -680.1425824321  -0.021119134087 0.20950616  0.00524730  1.1957849 0.7000
  2   -680.1572795457  -0.014697113667 0.14599926  0.00366024  0.8322855 0.7000
  3   -680.1675253007  -0.010245754976 0.10174047  0.00255316  0.5792461 0.7000
                      *** Initiating the SOSCF procedure ***
                      *** Re-Reading the Fockian *** 
                      *** Removing any level shift *** 
ITER      Energy       Delta-E        Grad      Rot      Max-DP    RMS-DP
  4   -680.17467675  -0.0071514453  0.002721  0.002721  0.236325  0.005936
               *** Restarting incremental Fock matrix formation ***
  5   -680.19129800  -0.0166212560  0.006346  0.000025  0.002494  0.000052
  6   -680.19129857  -0.0000005721  0.000082  0.000000  0.000031  0.000001
                 **** Energy Check signals convergence ****
              ***Rediagonalizing the Fockian in SOSCF/NRSCF***

               *****************************************************
               *                     SUCCESS                       *
               *           SCF CONVERGED AFTER   7 CYCLES          *
               *****************************************************

Setting up the final grid:

General Integration Accuracy     IntAcc      ...  5.340
Radial Grid Type                 RadialGrid  ... Gauss-Chebyshev
Angular Grid (max. acc.)         AngularGrid ... Lebedev-590
Angular grid pruning method      GridPruning ... 3 (G Style)
Weight generation scheme         WeightScheme... Becke
Basis function cutoff            BFCut       ...    1.0000e-11
Integration weight cutoff        WCut        ...    1.0000e-14
Grids for H and He will be reduced by one unit

# of grid points (after initial pruning)     ...  18110 (   0.0 sec)
# of grid points (after weights+screening)   ...  18110 (   0.0 sec)
Grid point division into batches done        ...    0.2 sec
Reduced shell lists constructed in    0.2 sec

Total number of grid points                  ...    18110
Total number of batches                      ...      283
Average number of points per batch           ...       63
Average number of grid points per atom       ...    18110
Average number of shells per batch           ...     2.12 ( 8.47%)
Average number of basis functions per batch  ...     6.35 ( 8.04%)
Average number of large shells per batch     ...     0.94 (44.44%)
Average number of large basis fcns per batch ...     2.82 (44.44%)
Maximum spatial batch extension              ...  19.03, 19.03, 19.03 au
Average spatial batch extension              ...   0.84,  0.84,  0.80 au

Final grid set up in    0.3 sec
Final integration                            ... done (   0.0 sec)
Change in XC energy                          ...     0.002387865
Integrated number of electrons               ...     2.000000204
Previous integrated no of electrons          ...     1.999997812

----------------
TOTAL SCF ENERGY
----------------

Total Energy       :         -680.18891071 Eh          -18508.88123 eV

Components:
Nuclear Repulsion  :            0.00000000 Eh               0.00000 eV
Electronic Energy  :         -680.18891071 Eh          -18508.88123 eV
One Electron Energy:         -704.93878940 Eh          -19182.35967 eV
Two Electron Energy:           24.74987869 Eh             673.47844 eV

Virial components:
Potential Energy   :        -1332.13833790 Eh          -36249.32705 eV
Kinetic Energy     :          651.94942719 Eh           17740.44582 eV
Virial Ratio       :            2.04331545


DFT components:
N(Alpha)           :        1.000000101935 electrons
N(Beta)            :        1.000000101935 electrons
N(Total)           :        2.000000203870 electrons
E(X)               :      -23.590860680398 Eh       
E(C)               :       -0.054707181262 Eh       
E(XC)              :      -23.645567861660 Eh       
DFET-embed. en.    :        0.000000000000 Eh       

---------------
SCF CONVERGENCE
---------------

  Last Energy change         ...   -8.7994e-11  Tolerance :   1.0000e-08
  Last MAX-Density change    ...    2.2586e-09  Tolerance :   1.0000e-07
  Last RMS-Density change    ...    8.6830e-11  Tolerance :   5.0000e-09
  Last Orbital Gradient      ...    8.5545e-09  Tolerance :   1.0000e-05
  Last Orbital Rotation      ...    2.7066e-11  Tolerance :   1.0000e-05

================================================================================
                                        WARNING
Number of found core electrons (2) does not match given number of chemical core electrons (10)
================================================================================
             **** THE GBW FILE WAS UPDATED (Ar_14_.gbw) ****
             **** DENSITY FILE WAS UPDATED (Ar_14_.scfp) ****
             **** ENERGY FILE WAS UPDATED (Ar_14_.en.tmp) ****
             **** THE GBW FILE WAS UPDATED (Ar_14_.gbw) ****
             **** DENSITY FILE WAS UPDATED (Ar_14_.scfp) ****
----------------
ORBITAL ENERGIES
----------------

  NO   OCC          E(Eh)            E(eV) 
   0   2.0000    -319.192845     -8685.6789 
   1   0.0000     -67.016622     -1823.6150 
   2   0.0000     -44.244325     -1203.9493 
   3   0.0000     -44.244325     -1203.9493 
   4   0.0000     -44.244325     -1203.9493 
   5   0.0000     -24.730662      -672.9555 
   6   0.0000     -17.359577      -472.3781 
   7   0.0000     -17.359577      -472.3781 
   8   0.0000     -17.359577      -472.3781 
   9   0.0000     -15.556665      -423.3184 
  10   0.0000     -15.556665      -423.3184 
  11   0.0000     -15.556665      -423.3184 
  12   0.0000     -15.556665      -423.3184 
  13   0.0000     -15.556665      -423.3184 
  14   0.0000     -12.346318      -335.9604 
  15   0.0000      -9.118308      -248.1218 
  16   0.0000      -9.118308      -248.1218 
  17   0.0000      -9.118308      -248.1218 
  18   0.0000      -8.586292      -233.6449 
  19   0.0000      -8.586292      -233.6449 
  20   0.0000      -8.586292      -233.6449 
  21   0.0000      -8.586292      -233.6449 
  22   0.0000      -8.586292      -233.6449 
  23   0.0000      -7.818936      -212.7641 
  24   0.0000      -7.818936      -212.7641 
  25   0.0000      -7.818936      -212.7641 
  26   0.0000      -7.818936      -212.7641 
  27   0.0000      -7.818936      -212.7641 
  28   0.0000      -7.818936      -212.7641 
  29   0.0000      -7.818936      -212.7641 
  30   0.0000      -7.273490      -197.9217 
  31   0.0000      -5.560161      -151.2997 
  32   0.0000      -5.560161      -151.2997 
  33   0.0000      -5.560161      -151.2997 
  34   0.0000      -5.404412      -147.0615 
  35   0.0000      -5.404412      -147.0615 
  36   0.0000      -5.404412      -147.0615 
  37   0.0000      -5.404412      -147.0615 
  38   0.0000      -5.404412      -147.0615 
  39   0.0000      -5.109417      -139.0343 
  40   0.0000      -5.109417      -139.0343 
  41   0.0000      -5.109417      -139.0343 
  42   0.0000      -5.109417      -139.0343 
  43   0.0000      -5.109417      -139.0343 
  44   0.0000      -5.109417      -139.0343 
  45   0.0000      -5.109417      -139.0343 
  46   0.0000      -5.109417      -139.0343 
  47   0.0000      -5.109417      -139.0343 
  48   0.0000      -4.850153      -131.9794 
  49   0.0000      -4.850153      -131.9794 
  50   0.0000      -4.850153      -131.9794 
  51   0.0000      -4.850153      -131.9794 
  52   0.0000      -4.850153      -131.9794 
  53   0.0000      -4.850153      -131.9794 
  54   0.0000      -4.850153      -131.9794 
  55   0.0000      -4.696565      -127.8000 
  56   0.0000      -3.613809       -98.3367 
  57   0.0000      -3.613809       -98.3367 
  58   0.0000      -3.613809       -98.3367 
  59   0.0000      -3.613809       -98.3367 
  60   0.0000      -3.613809       -98.3367 
  61   0.0000      -3.612417       -98.2989 
  62   0.0000      -3.612417       -98.2989 
  63   0.0000      -3.612417       -98.2989 
  64   0.0000      -3.081720       -83.8579 
  65   0.0000      -2.692109       -73.2560 
  66   0.0000      -2.692109       -73.2560 
  67   0.0000      -2.692109       -73.2560 
  68   0.0000      -2.692109       -73.2560 
  69   0.0000      -2.692109       -73.2560 
  70   0.0000      -2.304377       -62.7053 
  71   0.0000      -2.304377       -62.7053 
  72   0.0000      -2.304377       -62.7053 
  73   0.0000      -1.891105       -51.4596 
  74   0.0000      -1.891105       -51.4596 
  75   0.0000      -1.891105       -51.4596 
  76   0.0000      -1.543130       -41.9907 
  77   0.0000      23.008915       626.1044 
  78   0.0000      93.466148      2543.3432 

                    ********************************
                    * MULLIKEN POPULATION ANALYSIS *
                    ********************************

-----------------------
MULLIKEN ATOMIC CHARGES
-----------------------
   0 Ar:   16.000000
Sum of atomic charges:   16.0000000

--------------------------------
MULLIKEN REDUCED ORBITAL CHARGES
--------------------------------
  0 Ars       :     2.000000  s :     2.000000
      pz      :     0.000000  p :     0.000000
      px      :     0.000000
      py      :     0.000000
      dz2     :     0.000000  d :     0.000000
      dxz     :     0.000000
      dyz     :     0.000000
      dx2y2   :     0.000000
      dxy     :     0.000000
      f0      :     0.000000  f :     0.000000
      f+1     :     0.000000
      f-1     :     0.000000
      f+2     :     0.000000
      f-2     :     0.000000
      f+3     :     0.000000
      f-3     :     0.000000
      g0      :     0.000000  g :     0.000000
      g+1     :     0.000000
      g-1     :     0.000000
      g+2     :     0.000000
      g-2     :     0.000000
      g+3     :     0.000000
      g-3     :     0.000000
      g+4     :     0.000000
      g-4     :     0.000000


                     *******************************
                     * LOEWDIN POPULATION ANALYSIS *
                     *******************************

----------------------
LOEWDIN ATOMIC CHARGES
----------------------
   0 Ar:   16.000000

-------------------------------
LOEWDIN REDUCED ORBITAL CHARGES
-------------------------------
  0 Ars       :     2.000000  s :     2.000000
      pz      :     0.000000  p :     0.000000
      px      :     0.000000
      py      :     0.000000
      dz2     :     0.000000  d :     0.000000
      dxz     :     0.000000
      dyz     :     0.000000
      dx2y2   :     0.000000
      dxy     :     0.000000
      f0      :     0.000000  f :     0.000000
      f+1     :     0.000000
      f-1     :     0.000000
      f+2     :     0.000000
      f-2     :     0.000000
      f+3     :     0.000000
      f-3     :     0.000000
      g0      :     0.000000  g :     0.000000
      g+1     :     0.000000
      g-1     :     0.000000
      g+2     :     0.000000
      g-2     :     0.000000
      g+3     :     0.000000
      g-3     :     0.000000
      g+4     :     0.000000
      g-4     :     0.000000


                      *****************************
                      * MAYER POPULATION ANALYSIS *
                      *****************************

  NA   - Mulliken gross atomic population
  ZA   - Total nuclear charge
  QA   - Mulliken gross atomic charge
  VA   - Mayer's total valence
  BVA  - Mayer's bonded valence
  FA   - Mayer's free valence

  ATOM       NA         ZA         QA         VA         BVA        FA
  0 Ar     2.0000    18.0000    16.0000    -0.0000     0.0000    -0.0000

  Mayer bond orders larger than 0.100000


--------------------------
ATOM BASIS FOR ELEMENT Ar
--------------------------
 NewGTO Ar
 S 21
    1    1673421.949400000041        -0.000054178317
    2     250601.753729999997        -0.000421190403
    3      57030.912120000001        -0.002214231088
    4      16153.303915000000        -0.009328677008
    5       5269.410928800000        -0.033720074524
    6       1902.031554100000        -0.107489800275
    7        741.576771590000        -0.302581888290
    8        307.209019060000        -0.727507022414
    9        133.527862030000        -1.383298794950
   10         60.253381291000        -1.752894007744
   11        522.024262060000         0.088788333703
   12        161.512904690000         0.808185884217
   13         62.126369433000         3.139414785748
   14         27.590930012000        -1.576826036892
   15         11.175528881000         1.516883072553
   16          5.295906513700        -1.269505556432
   17          2.478279889500         0.723417452402
   18          0.912620950600        -0.369799599538
   19          0.404260675500         0.225129464494
   20          0.165628863100        -0.096287416133
   21          0.065129364700         0.025809962738
 S 21
    1    1673421.949400000041        -0.000025971563
    2     250601.753729999997        -0.000201906850
    3      57030.912120000001        -0.001061440197
    4      16153.303915000000        -0.004471905762
    5       5269.410928800000        -0.016164456698
    6       1902.031554100000        -0.051527591400
    7        741.576771590000        -0.145049259232
    8        307.209019060000        -0.348746434505
    9        133.527862030000        -0.663114592343
   10         60.253381291000        -0.840288157272
   11        522.024262060000         0.049719067043
   12        161.512904690000         0.452562250973
   13         62.126369433000         1.757987425816
   14         27.590930012000        -0.364176194052
   15         11.175528881000         1.343787831203
   16          5.295906513700        -0.848065739250
   17          2.478279889500         0.521729597198
   18          0.912620950600        -0.275047195830
   19          0.404260675500         0.169325946640
   20          0.165628863100        -0.072717803233
   21          0.065129364700         0.019496455029
 S 21
    1    1673421.949400000041        -0.000013800305
    2     250601.753729999997        -0.000107285653
    3      57030.912120000001        -0.000564009117
    4      16153.303915000000        -0.002376201341
    5       5269.410928800000        -0.008589180034
    6       1902.031554100000        -0.027379810378
    7        741.576771590000        -0.077073682378
    8        307.209019060000        -0.185310645956
    9        133.527862030000        -0.352353977824
   10         60.253381291000        -0.446497299490
   11        522.024262060000         0.028196065215
   12        161.512904690000         0.256651532319
   13         62.126369433000         0.996968186505
   14         27.590930012000        -0.037339060120
   15         11.175528881000         0.935780971189
   16          5.295906513700        -1.347224745459
   17          2.478279889500        -0.217588274895
   18          0.912620950600        -0.203968559072
   19          0.404260675500         0.120236908522
   20          0.165628863100        -0.051498134518
   21          0.065129364700         0.013758963589
 S 21
    1    1673421.949400000041        -0.000008537433
    2     250601.753729999997        -0.000066371295
    3      57030.912120000001        -0.000348919120
    4      16153.303915000000        -0.001470015390
    5       5269.410928800000        -0.005313618262
    6       1902.031554100000        -0.016938271158
    7        741.576771590000        -0.047680933990
    8        307.209019060000        -0.114640749018
    9        133.527862030000        -0.217980589991
   10         60.253381291000        -0.276221501381
   11        522.024262060000         0.017968074620
   12        161.512904690000         0.163552391053
   13         62.126369433000         0.635322646366
   14         27.590930012000        -0.012881160744
   15         11.175528881000         0.739563319743
   16          5.295906513700        -1.780644188700
   17          2.478279889500         0.116127011888
   18          0.912620950600         1.373386318867
   19          0.404260675500        -0.122256772304
   20          0.165628863100         0.049103989865
   21          0.065129364700        -0.012062480000
 S 21
    1    1673421.949400000041        -0.000005835292
    2     250601.753729999997        -0.000045364438
    3      57030.912120000001        -0.000238484417
    4      16153.303915000000        -0.001004747928
    5       5269.410928800000        -0.003631830643
    6       1902.031554100000        -0.011577220869
    7        741.576771590000        -0.032589672162
    8        307.209019060000        -0.078356359960
    9        133.527862030000        -0.148988607628
   10         60.253381291000        -0.188795969813
   11        522.024262060000         0.012540962875
   12        161.512904690000         0.114152712942
   13         62.126369433000         0.443428574840
   14         27.590930012000        -0.029405401369
   15         11.175528881000         0.649294766719
   16          5.295906513700        -1.925530988170
   17          2.478279889500         0.934910101716
   18          0.912620950600         2.151738122859
   19          0.404260675500        -2.584909408995
   20          0.165628863100         0.321375473519
   21          0.065129364700        -0.078811649731
 S 21
    1    1673421.949400000041        -0.000004170496
    2     250601.753729999997        -0.000032422061
    3      57030.912120000001        -0.000170445325
    4      16153.303915000000        -0.000718095504
    5       5269.410928800000        -0.002595677167
    6       1902.031554100000        -0.008274264637
    7        741.576771590000        -0.023291908738
    8        307.209019060000        -0.056001458871
    9        133.527862030000        -0.106482478085
   10         60.253381291000        -0.134932885395
   11        522.024262060000         0.009137856182
   12        161.512904690000         0.083176314612
   13         62.126369433000         0.323100114733
   14         27.590930012000        -0.046918004685
   15         11.175528881000         0.590536125492
   16          5.295906513700        -1.905933282035
   17          2.478279889500         1.651225052594
   18          0.912620950600         1.054784357426
   19          0.404260675500        -3.754158558551
   20          0.165628863100         3.097970943747
   21          0.065129364700        -0.375989407756
 S 21
    1    1673421.949400000041         0.000003156632
    2     250601.753729999997         0.000024540135
    3      57030.912120000001         0.000129009419
    4      16153.303915000000         0.000543523756
    5       5269.410928800000         0.001964658176
    6       1902.031554100000         0.006262759439
    7        741.576771590000         0.017629557149
    8        307.209019060000         0.042387291256
    9        133.527862030000         0.080596182730
   10         60.253381291000         0.102130187831
   11        522.024262060000        -0.007045151076
   12        161.512904690000        -0.064127700274
   13         62.126369433000        -0.249105378289
   14         27.590930012000         0.058588649633
   15         11.175528881000        -0.550925862638
   16          5.295906513700         1.850692307574
   17          2.478279889500        -2.156444072796
   18          0.912620950600         0.853484313059
   19          0.404260675500         1.456089692384
   20          0.165628863100        -3.400369636964
   21          0.065129364700         2.452258412732
 S 21
    1    1673421.949400000041         0.000008857818
    2     250601.753729999997         0.000068862010
    3      57030.912120000001         0.000362013004
    4      16153.303915000000         0.001525180640
    5       5269.410928800000         0.005513022349
    6       1902.031554100000         0.017573913451
    7        741.576771590000         0.049470255810
    8        307.209019060000         0.118942870990
    9        133.527862030000         0.226160744899
   10         60.253381291000         0.286587262251
   11        522.024262060000        -0.020020563519
   12        161.512904690000        -0.182234941858
   13         62.126369433000        -0.707895401442
   14         27.590930012000         0.205978542336
   15         11.175528881000        -1.758703069487
   16          5.295906513700         6.180198623572
   17          2.478279889500        -8.600744019185
   18          0.912620950600         8.979952750247
   19          0.404260675500        -7.963866673248
   20          0.165628863100         4.615004745456
   21          0.065129364700        -1.572437289091
 S 21
    1    1673421.949400000041         0.000019864061
    2     250601.753729999997         0.000154426207
    3      57030.912120000001         0.000811830721
    4      16153.303915000000         0.003420287352
    5       5269.410928800000         0.012363204803
    6       1902.031554100000         0.039410304806
    7        741.576771590000         0.110939311597
    8        307.209019060000         0.266734829058
    9        133.527862030000         0.507175815818
   10         60.253381291000         0.642685045101
   11        522.024262060000        -0.036882609897
   12        161.512904690000        -0.335719834453
   13         62.126369433000        -1.304110641788
   14         27.590930012000        -2.482045275438
   15         11.175528881000         8.211376699135
   16          5.295906513700       -10.501952064725
   17          2.478279889500         7.197094482750
   18          0.912620950600        -3.961788269710
   19          0.404260675500         2.448201524586
   20          0.165628863100        -1.055850763325
   21          0.065129364700         0.285248157878
 S 21
    1    1673421.949400000041        -0.000050191050
    2     250601.753729999997        -0.000390192793
    3      57030.912120000001        -0.002051274212
    4      16153.303915000000        -0.008642130752
    5       5269.410928800000        -0.031238437428
    6       1902.031554100000        -0.099579062247
    7        741.576771590000        -0.280313300536
    8        307.209019060000        -0.673965965937
    9        133.527862030000        -1.281494583274
   10         60.253381291000        -1.623889346379
   11        522.024262060000         0.164367100926
   12        161.512904690000         1.496133165908
   13         62.126369433000         5.811760232671
   14         27.590930012000        -7.759496997234
   15         11.175528881000         8.641174797258
   16          5.295906513700        -7.217495018568
   17          2.478279889500         3.963416661157
   18          0.912620950600        -1.942577437942
   19          0.404260675500         1.161759061245
   20          0.165628863100        -0.493069048745
   21          0.065129364700         0.131944832432
 P 15
    1       2868.450458100000         0.000648577427
    2        679.718695900000         0.005646866219
    3        220.367588240000         0.030711149951
    4         83.620439734000         0.121290609217
    5         34.964322657000         0.357566170110
    6         15.525131784000         0.748491571120
    7          7.099297980600         1.043052753401
    8          3.302133660200         0.769659706899
    9        128.787656670000         0.070222561806
   10          8.435786797700        -1.475404799700
   11          1.461866185500        -0.876321243321
   12          0.646580101000         0.620866621168
   13          0.272292957500        -0.322571334811
   14          0.109051824500         0.121921857630
   15          0.030101149700        -0.027008104336
 P 15
    1       2868.450458100000         0.000413985908
    2        679.718695900000         0.003604385445
    3        220.367588240000         0.019602876638
    4         83.620439734000         0.077419596909
    5         34.964322657000         0.228233899862
    6         15.525131784000         0.477760942088
    7          7.099297980600         0.665778861566
    8          3.302133660200         0.491272528433
    9        128.787656670000         0.070348247337
   10          8.435786797700        -1.478045504212
   11          1.461866185500        -1.765252617802
   12          0.646580101000         1.048699969009
   13          0.272292957500        -0.539719107451
   14          0.109051824500         0.201541039190
   15          0.030101149700        -0.043851030667
 P 15
    1       2868.450458100000         0.000309196821
    2        679.718695900000         0.002692034923
    3        220.367588240000         0.014640950392
    4         83.620439734000         0.057822966427
    5         34.964322657000         0.170462798261
    6         15.525131784000         0.356828968603
    7          7.099297980600         0.497255350034
    8          3.302133660200         0.366920470430
    9        128.787656670000         0.062947228144
   10          8.435786797700        -1.322547058144
   11          1.461866185500        -1.147276916961
   12          0.646580101000         2.074490963715
   13          0.272292957500        -0.648298775809
   14          0.109051824500         0.235924251575
   15          0.030101149700        -0.049438673947
 P 15
    1       2868.450458100000         0.000249879201
    2        679.718695900000         0.002175583607
    3        220.367588240000         0.011832168816
    4         83.620439734000         0.046729965055
    5         34.964322657000         0.137760497221
    6         15.525131784000         0.288373396655
    7          7.099297980600         0.401859789735
    8          3.302133660200         0.296528902276
    9        128.787656670000         0.055245159309
   10          8.435786797700        -1.160723435727
   11          1.461866185500        -0.392593430789
   12          0.646580101000         1.685608150396
   13          0.272292957500        -2.120131038238
   14          0.109051824500         0.383603854020
   15          0.030101149700        -0.072083542039
 P 15
    1       2868.450458100000         0.000220620618
    2        679.718695900000         0.001920842547
    3        220.367588240000         0.010446729425
    4         83.620439734000         0.041258311012
    5         34.964322657000         0.121629995505
    6         15.525131784000         0.254607493777
    7          7.099297980600         0.354805662037
    8          3.302133660200         0.261808063839
    9        128.787656670000         0.051070964902
   10          8.435786797700        -1.073021900706
   11          1.461866185500         0.174892928729
   12          0.646580101000         0.391442598838
   13          0.272292957500        -1.717381604592
   14          0.109051824500         1.872467617263
   15          0.030101149700        -0.188280089411
 P 15
    1       2868.450458100000         0.000353503492
    2        679.718695900000         0.003077792789
    3        220.367588240000         0.016738940184
    4         83.620439734000         0.066108766874
    5         34.964322657000         0.194889437315
    6         15.525131784000         0.407961136497
    7          7.099297980600         0.568510058259
    8          3.302133660200         0.419498710283
    9        128.787656670000         0.084423826637
   10          8.435786797700        -1.773779193270
   11          1.461866185500         1.007453243080
   12          0.646580101000        -1.722261898383
   13          0.272292957500         1.110879507103
   14          0.109051824500         0.071913656463
   15          0.030101149700        -0.866874493145
 P 15
    1       2868.450458100000         0.000344882060
    2        679.718695900000         0.003002729934
    3        220.367588240000         0.016330701967
    4         83.620439734000         0.064496470945
    5         34.964322657000         0.190136369586
    6         15.525131784000         0.398011562321
    7          7.099297980600         0.554644931196
    8          3.302133660200         0.409267751593
    9        128.787656670000         0.083190723524
   10          8.435786797700        -1.747871191571
   11          1.461866185500         1.205539791876
   12          0.646580101000        -2.436439285854
   13          0.272292957500         2.601715949432
   14          0.109051824500        -1.966579032417
   15          0.030101149700         1.150632707031
 D 5
    1          6.315000000000         0.751794759395
    2          1.562000000000         0.484013172753
    3          0.715000000000        -0.170643025583
    4          0.297000000000         0.066983348076
    5          0.101050282200        -0.017501769496
 D 5
    1          6.315000000000         0.584282632796
    2          1.562000000000        -0.428136716794
    3          0.715000000000        -0.674652070349
    4          0.297000000000         0.059426064191
    5          0.101050282200        -0.016697697619
 D 5
    1          6.315000000000         0.460316697110
    2          1.562000000000        -0.923874587604
    3          0.715000000000         0.287657419217
    4          0.297000000000         0.910040613372
    5          0.101050282200        -0.072963966222
 D 5
    1          6.315000000000         0.439891915924
    2          1.562000000000        -1.336775675242
    3          0.715000000000         1.707872292377
    4          0.297000000000        -0.658575546308
    5          0.101050282200        -0.620478210095
 D 5
    1          6.315000000000         0.377600437187
    2          1.562000000000        -1.330461782784
    3          0.715000000000         2.189887297516
    4          0.297000000000        -2.013421619550
    5          0.101050282200         1.282253663896
 F 2
    1          0.543000000000         0.074353614356
    2          1.325000000000         0.950198274774
 F 2
    1          0.543000000000        -1.311176320628
    2          1.325000000000         0.906551180221
 G 1
    1          1.007000000000         1.000000000000
 end
  // -----------------------------------------------
  // The basis set
  // -----------------------------------------------
  BAS[ATNO] = new BFNGauss[NSH];
  // Basis function   1 L = s
  InitBFNGauss(BAS[ATNO][  0]);
  BAS[ATNO][  0].l  = 0;
  BAS[ATNO][  0].ng = 21;
  BAS[ATNO][  0].a[  0] =   1673421.949400000041;     BAS[ATNO][  0].d[  0] =        -0.000054178317;
  BAS[ATNO][  0].a[  1] =    250601.753729999997;     BAS[ATNO][  0].d[  1] =        -0.000421190403;
  BAS[ATNO][  0].a[  2] =     57030.912120000001;     BAS[ATNO][  0].d[  2] =        -0.002214231088;
  BAS[ATNO][  0].a[  3] =     16153.303915000000;     BAS[ATNO][  0].d[  3] =        -0.009328677008;
  BAS[ATNO][  0].a[  4] =      5269.410928800000;     BAS[ATNO][  0].d[  4] =        -0.033720074524;
  BAS[ATNO][  0].a[  5] =      1902.031554100000;     BAS[ATNO][  0].d[  5] =        -0.107489800275;
  BAS[ATNO][  0].a[  6] =       741.576771590000;     BAS[ATNO][  0].d[  6] =        -0.302581888290;
  BAS[ATNO][  0].a[  7] =       307.209019060000;     BAS[ATNO][  0].d[  7] =        -0.727507022414;
  BAS[ATNO][  0].a[  8] =       133.527862030000;     BAS[ATNO][  0].d[  8] =        -1.383298794950;
  BAS[ATNO][  0].a[  9] =        60.253381291000;     BAS[ATNO][  0].d[  9] =        -1.752894007744;
  BAS[ATNO][  0].a[ 10] =       522.024262060000;     BAS[ATNO][  0].d[ 10] =         0.088788333703;
  BAS[ATNO][  0].a[ 11] =       161.512904690000;     BAS[ATNO][  0].d[ 11] =         0.808185884217;
  BAS[ATNO][  0].a[ 12] =        62.126369433000;     BAS[ATNO][  0].d[ 12] =         3.139414785748;
  BAS[ATNO][  0].a[ 13] =        27.590930012000;     BAS[ATNO][  0].d[ 13] =        -1.576826036892;
  BAS[ATNO][  0].a[ 14] =        11.175528881000;     BAS[ATNO][  0].d[ 14] =         1.516883072553;
  BAS[ATNO][  0].a[ 15] =         5.295906513700;     BAS[ATNO][  0].d[ 15] =        -1.269505556432;
  BAS[ATNO][  0].a[ 16] =         2.478279889500;     BAS[ATNO][  0].d[ 16] =         0.723417452402;
  BAS[ATNO][  0].a[ 17] =         0.912620950600;     BAS[ATNO][  0].d[ 17] =        -0.369799599538;
  BAS[ATNO][  0].a[ 18] =         0.404260675500;     BAS[ATNO][  0].d[ 18] =         0.225129464494;
  BAS[ATNO][  0].a[ 19] =         0.165628863100;     BAS[ATNO][  0].d[ 19] =        -0.096287416133;
  BAS[ATNO][  0].a[ 20] =         0.065129364700;     BAS[ATNO][  0].d[ 20] =         0.025809962738;

  // Basis function   2 L = s
  InitBFNGauss(BAS[ATNO][  1]);
  BAS[ATNO][  1].l  = 0;
  BAS[ATNO][  1].ng = 21;
  BAS[ATNO][  1].a[  0] =   1673421.949400000041;     BAS[ATNO][  1].d[  0] =        -0.000025971563;
  BAS[ATNO][  1].a[  1] =    250601.753729999997;     BAS[ATNO][  1].d[  1] =        -0.000201906850;
  BAS[ATNO][  1].a[  2] =     57030.912120000001;     BAS[ATNO][  1].d[  2] =        -0.001061440197;
  BAS[ATNO][  1].a[  3] =     16153.303915000000;     BAS[ATNO][  1].d[  3] =        -0.004471905762;
  BAS[ATNO][  1].a[  4] =      5269.410928800000;     BAS[ATNO][  1].d[  4] =        -0.016164456698;
  BAS[ATNO][  1].a[  5] =      1902.031554100000;     BAS[ATNO][  1].d[  5] =        -0.051527591400;
  BAS[ATNO][  1].a[  6] =       741.576771590000;     BAS[ATNO][  1].d[  6] =        -0.145049259232;
  BAS[ATNO][  1].a[  7] =       307.209019060000;     BAS[ATNO][  1].d[  7] =        -0.348746434505;
  BAS[ATNO][  1].a[  8] =       133.527862030000;     BAS[ATNO][  1].d[  8] =        -0.663114592343;
  BAS[ATNO][  1].a[  9] =        60.253381291000;     BAS[ATNO][  1].d[  9] =        -0.840288157272;
  BAS[ATNO][  1].a[ 10] =       522.024262060000;     BAS[ATNO][  1].d[ 10] =         0.049719067043;
  BAS[ATNO][  1].a[ 11] =       161.512904690000;     BAS[ATNO][  1].d[ 11] =         0.452562250973;
  BAS[ATNO][  1].a[ 12] =        62.126369433000;     BAS[ATNO][  1].d[ 12] =         1.757987425816;
  BAS[ATNO][  1].a[ 13] =        27.590930012000;     BAS[ATNO][  1].d[ 13] =        -0.364176194052;
  BAS[ATNO][  1].a[ 14] =        11.175528881000;     BAS[ATNO][  1].d[ 14] =         1.343787831203;
  BAS[ATNO][  1].a[ 15] =         5.295906513700;     BAS[ATNO][  1].d[ 15] =        -0.848065739250;
  BAS[ATNO][  1].a[ 16] =         2.478279889500;     BAS[ATNO][  1].d[ 16] =         0.521729597198;
  BAS[ATNO][  1].a[ 17] =         0.912620950600;     BAS[ATNO][  1].d[ 17] =        -0.275047195830;
  BAS[ATNO][  1].a[ 18] =         0.404260675500;     BAS[ATNO][  1].d[ 18] =         0.169325946640;
  BAS[ATNO][  1].a[ 19] =         0.165628863100;     BAS[ATNO][  1].d[ 19] =        -0.072717803233;
  BAS[ATNO][  1].a[ 20] =         0.065129364700;     BAS[ATNO][  1].d[ 20] =         0.019496455029;

  // Basis function   3 L = s
  InitBFNGauss(BAS[ATNO][  2]);
  BAS[ATNO][  2].l  = 0;
  BAS[ATNO][  2].ng = 21;
  BAS[ATNO][  2].a[  0] =   1673421.949400000041;     BAS[ATNO][  2].d[  0] =         0.000013800305;
  BAS[ATNO][  2].a[  1] =    250601.753729999997;     BAS[ATNO][  2].d[  1] =         0.000107285653;
  BAS[ATNO][  2].a[  2] =     57030.912120000001;     BAS[ATNO][  2].d[  2] =         0.000564009117;
  BAS[ATNO][  2].a[  3] =     16153.303915000000;     BAS[ATNO][  2].d[  3] =         0.002376201341;
  BAS[ATNO][  2].a[  4] =      5269.410928800000;     BAS[ATNO][  2].d[  4] =         0.008589180034;
  BAS[ATNO][  2].a[  5] =      1902.031554100000;     BAS[ATNO][  2].d[  5] =         0.027379810378;
  BAS[ATNO][  2].a[  6] =       741.576771590000;     BAS[ATNO][  2].d[  6] =         0.077073682378;
  BAS[ATNO][  2].a[  7] =       307.209019060000;     BAS[ATNO][  2].d[  7] =         0.185310645956;
  BAS[ATNO][  2].a[  8] =       133.527862030000;     BAS[ATNO][  2].d[  8] =         0.352353977824;
  BAS[ATNO][  2].a[  9] =        60.253381291000;     BAS[ATNO][  2].d[  9] =         0.446497299490;
  BAS[ATNO][  2].a[ 10] =       522.024262060000;     BAS[ATNO][  2].d[ 10] =        -0.028196065215;
  BAS[ATNO][  2].a[ 11] =       161.512904690000;     BAS[ATNO][  2].d[ 11] =        -0.256651532319;
  BAS[ATNO][  2].a[ 12] =        62.126369433000;     BAS[ATNO][  2].d[ 12] =        -0.996968186505;
  BAS[ATNO][  2].a[ 13] =        27.590930012000;     BAS[ATNO][  2].d[ 13] =         0.037339060120;
  BAS[ATNO][  2].a[ 14] =        11.175528881000;     BAS[ATNO][  2].d[ 14] =        -0.935780971189;
  BAS[ATNO][  2].a[ 15] =         5.295906513700;     BAS[ATNO][  2].d[ 15] =         1.347224745459;
  BAS[ATNO][  2].a[ 16] =         2.478279889500;     BAS[ATNO][  2].d[ 16] =         0.217588274895;
  BAS[ATNO][  2].a[ 17] =         0.912620950600;     BAS[ATNO][  2].d[ 17] =         0.203968559072;
  BAS[ATNO][  2].a[ 18] =         0.404260675500;     BAS[ATNO][  2].d[ 18] =        -0.120236908522;
  BAS[ATNO][  2].a[ 19] =         0.165628863100;     BAS[ATNO][  2].d[ 19] =         0.051498134518;
  BAS[ATNO][  2].a[ 20] =         0.065129364700;     BAS[ATNO][  2].d[ 20] =        -0.013758963589;

  // Basis function   4 L = s
  InitBFNGauss(BAS[ATNO][  3]);
  BAS[ATNO][  3].l  = 0;
  BAS[ATNO][  3].ng = 21;
  BAS[ATNO][  3].a[  0] =   1673421.949400000041;     BAS[ATNO][  3].d[  0] =         0.000008537433;
  BAS[ATNO][  3].a[  1] =    250601.753729999997;     BAS[ATNO][  3].d[  1] =         0.000066371295;
  BAS[ATNO][  3].a[  2] =     57030.912120000001;     BAS[ATNO][  3].d[  2] =         0.000348919120;
  BAS[ATNO][  3].a[  3] =     16153.303915000000;     BAS[ATNO][  3].d[  3] =         0.001470015390;
  BAS[ATNO][  3].a[  4] =      5269.410928800000;     BAS[ATNO][  3].d[  4] =         0.005313618262;
  BAS[ATNO][  3].a[  5] =      1902.031554100000;     BAS[ATNO][  3].d[  5] =         0.016938271158;
  BAS[ATNO][  3].a[  6] =       741.576771590000;     BAS[ATNO][  3].d[  6] =         0.047680933990;
  BAS[ATNO][  3].a[  7] =       307.209019060000;     BAS[ATNO][  3].d[  7] =         0.114640749018;
  BAS[ATNO][  3].a[  8] =       133.527862030000;     BAS[ATNO][  3].d[  8] =         0.217980589991;
  BAS[ATNO][  3].a[  9] =        60.253381291000;     BAS[ATNO][  3].d[  9] =         0.276221501381;
  BAS[ATNO][  3].a[ 10] =       522.024262060000;     BAS[ATNO][  3].d[ 10] =        -0.017968074620;
  BAS[ATNO][  3].a[ 11] =       161.512904690000;     BAS[ATNO][  3].d[ 11] =        -0.163552391053;
  BAS[ATNO][  3].a[ 12] =        62.126369433000;     BAS[ATNO][  3].d[ 12] =        -0.635322646366;
  BAS[ATNO][  3].a[ 13] =        27.590930012000;     BAS[ATNO][  3].d[ 13] =         0.012881160744;
  BAS[ATNO][  3].a[ 14] =        11.175528881000;     BAS[ATNO][  3].d[ 14] =        -0.739563319743;
  BAS[ATNO][  3].a[ 15] =         5.295906513700;     BAS[ATNO][  3].d[ 15] =         1.780644188700;
  BAS[ATNO][  3].a[ 16] =         2.478279889500;     BAS[ATNO][  3].d[ 16] =        -0.116127011888;
  BAS[ATNO][  3].a[ 17] =         0.912620950600;     BAS[ATNO][  3].d[ 17] =        -1.373386318867;
  BAS[ATNO][  3].a[ 18] =         0.404260675500;     BAS[ATNO][  3].d[ 18] =         0.122256772304;
  BAS[ATNO][  3].a[ 19] =         0.165628863100;     BAS[ATNO][  3].d[ 19] =        -0.049103989865;
  BAS[ATNO][  3].a[ 20] =         0.065129364700;     BAS[ATNO][  3].d[ 20] =         0.012062480000;

  // Basis function   5 L = s
  InitBFNGauss(BAS[ATNO][  4]);
  BAS[ATNO][  4].l  = 0;
  BAS[ATNO][  4].ng = 21;
  BAS[ATNO][  4].a[  0] =   1673421.949400000041;     BAS[ATNO][  4].d[  0] =         0.000005835292;
  BAS[ATNO][  4].a[  1] =    250601.753729999997;     BAS[ATNO][  4].d[  1] =         0.000045364438;
  BAS[ATNO][  4].a[  2] =     57030.912120000001;     BAS[ATNO][  4].d[  2] =         0.000238484417;
  BAS[ATNO][  4].a[  3] =     16153.303915000000;     BAS[ATNO][  4].d[  3] =         0.001004747928;
  BAS[ATNO][  4].a[  4] =      5269.410928800000;     BAS[ATNO][  4].d[  4] =         0.003631830643;
  BAS[ATNO][  4].a[  5] =      1902.031554100000;     BAS[ATNO][  4].d[  5] =         0.011577220869;
  BAS[ATNO][  4].a[  6] =       741.576771590000;     BAS[ATNO][  4].d[  6] =         0.032589672162;
  BAS[ATNO][  4].a[  7] =       307.209019060000;     BAS[ATNO][  4].d[  7] =         0.078356359960;
  BAS[ATNO][  4].a[  8] =       133.527862030000;     BAS[ATNO][  4].d[  8] =         0.148988607628;
  BAS[ATNO][  4].a[  9] =        60.253381291000;     BAS[ATNO][  4].d[  9] =         0.188795969813;
  BAS[ATNO][  4].a[ 10] =       522.024262060000;     BAS[ATNO][  4].d[ 10] =        -0.012540962875;
  BAS[ATNO][  4].a[ 11] =       161.512904690000;     BAS[ATNO][  4].d[ 11] =        -0.114152712942;
  BAS[ATNO][  4].a[ 12] =        62.126369433000;     BAS[ATNO][  4].d[ 12] =        -0.443428574840;
  BAS[ATNO][  4].a[ 13] =        27.590930012000;     BAS[ATNO][  4].d[ 13] =         0.029405401369;
  BAS[ATNO][  4].a[ 14] =        11.175528881000;     BAS[ATNO][  4].d[ 14] =        -0.649294766719;
  BAS[ATNO][  4].a[ 15] =         5.295906513700;     BAS[ATNO][  4].d[ 15] =         1.925530988170;
  BAS[ATNO][  4].a[ 16] =         2.478279889500;     BAS[ATNO][  4].d[ 16] =        -0.934910101716;
  BAS[ATNO][  4].a[ 17] =         0.912620950600;     BAS[ATNO][  4].d[ 17] =        -2.151738122859;
  BAS[ATNO][  4].a[ 18] =         0.404260675500;     BAS[ATNO][  4].d[ 18] =         2.584909408995;
  BAS[ATNO][  4].a[ 19] =         0.165628863100;     BAS[ATNO][  4].d[ 19] =        -0.321375473519;
  BAS[ATNO][  4].a[ 20] =         0.065129364700;     BAS[ATNO][  4].d[ 20] =         0.078811649731;

  // Basis function   6 L = s
  InitBFNGauss(BAS[ATNO][  5]);
  BAS[ATNO][  5].l  = 0;
  BAS[ATNO][  5].ng = 21;
  BAS[ATNO][  5].a[  0] =   1673421.949400000041;     BAS[ATNO][  5].d[  0] =         0.000004170496;
  BAS[ATNO][  5].a[  1] =    250601.753729999997;     BAS[ATNO][  5].d[  1] =         0.000032422061;
  BAS[ATNO][  5].a[  2] =     57030.912120000001;     BAS[ATNO][  5].d[  2] =         0.000170445325;
  BAS[ATNO][  5].a[  3] =     16153.303915000000;     BAS[ATNO][  5].d[  3] =         0.000718095504;
  BAS[ATNO][  5].a[  4] =      5269.410928800000;     BAS[ATNO][  5].d[  4] =         0.002595677167;
  BAS[ATNO][  5].a[  5] =      1902.031554100000;     BAS[ATNO][  5].d[  5] =         0.008274264637;
  BAS[ATNO][  5].a[  6] =       741.576771590000;     BAS[ATNO][  5].d[  6] =         0.023291908738;
  BAS[ATNO][  5].a[  7] =       307.209019060000;     BAS[ATNO][  5].d[  7] =         0.056001458871;
  BAS[ATNO][  5].a[  8] =       133.527862030000;     BAS[ATNO][  5].d[  8] =         0.106482478085;
  BAS[ATNO][  5].a[  9] =        60.253381291000;     BAS[ATNO][  5].d[  9] =         0.134932885395;
  BAS[ATNO][  5].a[ 10] =       522.024262060000;     BAS[ATNO][  5].d[ 10] =        -0.009137856182;
  BAS[ATNO][  5].a[ 11] =       161.512904690000;     BAS[ATNO][  5].d[ 11] =        -0.083176314612;
  BAS[ATNO][  5].a[ 12] =        62.126369433000;     BAS[ATNO][  5].d[ 12] =        -0.323100114733;
  BAS[ATNO][  5].a[ 13] =        27.590930012000;     BAS[ATNO][  5].d[ 13] =         0.046918004685;
  BAS[ATNO][  5].a[ 14] =        11.175528881000;     BAS[ATNO][  5].d[ 14] =        -0.590536125492;
  BAS[ATNO][  5].a[ 15] =         5.295906513700;     BAS[ATNO][  5].d[ 15] =         1.905933282035;
  BAS[ATNO][  5].a[ 16] =         2.478279889500;     BAS[ATNO][  5].d[ 16] =        -1.651225052594;
  BAS[ATNO][  5].a[ 17] =         0.912620950600;     BAS[ATNO][  5].d[ 17] =        -1.054784357426;
  BAS[ATNO][  5].a[ 18] =         0.404260675500;     BAS[ATNO][  5].d[ 18] =         3.754158558551;
  BAS[ATNO][  5].a[ 19] =         0.165628863100;     BAS[ATNO][  5].d[ 19] =        -3.097970943747;
  BAS[ATNO][  5].a[ 20] =         0.065129364700;     BAS[ATNO][  5].d[ 20] =         0.375989407756;

  // Basis function   7 L = s
  InitBFNGauss(BAS[ATNO][  6]);
  BAS[ATNO][  6].l  = 0;
  BAS[ATNO][  6].ng = 21;
  BAS[ATNO][  6].a[  0] =   1673421.949400000041;     BAS[ATNO][  6].d[  0] =        -0.000003156632;
  BAS[ATNO][  6].a[  1] =    250601.753729999997;     BAS[ATNO][  6].d[  1] =        -0.000024540135;
  BAS[ATNO][  6].a[  2] =     57030.912120000001;     BAS[ATNO][  6].d[  2] =        -0.000129009419;
  BAS[ATNO][  6].a[  3] =     16153.303915000000;     BAS[ATNO][  6].d[  3] =        -0.000543523756;
  BAS[ATNO][  6].a[  4] =      5269.410928800000;     BAS[ATNO][  6].d[  4] =        -0.001964658176;
  BAS[ATNO][  6].a[  5] =      1902.031554100000;     BAS[ATNO][  6].d[  5] =        -0.006262759439;
  BAS[ATNO][  6].a[  6] =       741.576771590000;     BAS[ATNO][  6].d[  6] =        -0.017629557149;
  BAS[ATNO][  6].a[  7] =       307.209019060000;     BAS[ATNO][  6].d[  7] =        -0.042387291256;
  BAS[ATNO][  6].a[  8] =       133.527862030000;     BAS[ATNO][  6].d[  8] =        -0.080596182730;
  BAS[ATNO][  6].a[  9] =        60.253381291000;     BAS[ATNO][  6].d[  9] =        -0.102130187831;
  BAS[ATNO][  6].a[ 10] =       522.024262060000;     BAS[ATNO][  6].d[ 10] =         0.007045151076;
  BAS[ATNO][  6].a[ 11] =       161.512904690000;     BAS[ATNO][  6].d[ 11] =         0.064127700274;
  BAS[ATNO][  6].a[ 12] =        62.126369433000;     BAS[ATNO][  6].d[ 12] =         0.249105378289;
  BAS[ATNO][  6].a[ 13] =        27.590930012000;     BAS[ATNO][  6].d[ 13] =        -0.058588649633;
  BAS[ATNO][  6].a[ 14] =        11.175528881000;     BAS[ATNO][  6].d[ 14] =         0.550925862638;
  BAS[ATNO][  6].a[ 15] =         5.295906513700;     BAS[ATNO][  6].d[ 15] =        -1.850692307574;
  BAS[ATNO][  6].a[ 16] =         2.478279889500;     BAS[ATNO][  6].d[ 16] =         2.156444072796;
  BAS[ATNO][  6].a[ 17] =         0.912620950600;     BAS[ATNO][  6].d[ 17] =        -0.853484313059;
  BAS[ATNO][  6].a[ 18] =         0.404260675500;     BAS[ATNO][  6].d[ 18] =        -1.456089692384;
  BAS[ATNO][  6].a[ 19] =         0.165628863100;     BAS[ATNO][  6].d[ 19] =         3.400369636964;
  BAS[ATNO][  6].a[ 20] =         0.065129364700;     BAS[ATNO][  6].d[ 20] =        -2.452258412732;

  // Basis function   8 L = s
  InitBFNGauss(BAS[ATNO][  7]);
  BAS[ATNO][  7].l  = 0;
  BAS[ATNO][  7].ng = 21;
  BAS[ATNO][  7].a[  0] =   1673421.949400000041;     BAS[ATNO][  7].d[  0] =         0.000008857818;
  BAS[ATNO][  7].a[  1] =    250601.753729999997;     BAS[ATNO][  7].d[  1] =         0.000068862010;
  BAS[ATNO][  7].a[  2] =     57030.912120000001;     BAS[ATNO][  7].d[  2] =         0.000362013004;
  BAS[ATNO][  7].a[  3] =     16153.303915000000;     BAS[ATNO][  7].d[  3] =         0.001525180640;
  BAS[ATNO][  7].a[  4] =      5269.410928800000;     BAS[ATNO][  7].d[  4] =         0.005513022349;
  BAS[ATNO][  7].a[  5] =      1902.031554100000;     BAS[ATNO][  7].d[  5] =         0.017573913451;
  BAS[ATNO][  7].a[  6] =       741.576771590000;     BAS[ATNO][  7].d[  6] =         0.049470255810;
  BAS[ATNO][  7].a[  7] =       307.209019060000;     BAS[ATNO][  7].d[  7] =         0.118942870990;
  BAS[ATNO][  7].a[  8] =       133.527862030000;     BAS[ATNO][  7].d[  8] =         0.226160744899;
  BAS[ATNO][  7].a[  9] =        60.253381291000;     BAS[ATNO][  7].d[  9] =         0.286587262251;
  BAS[ATNO][  7].a[ 10] =       522.024262060000;     BAS[ATNO][  7].d[ 10] =        -0.020020563519;
  BAS[ATNO][  7].a[ 11] =       161.512904690000;     BAS[ATNO][  7].d[ 11] =        -0.182234941858;
  BAS[ATNO][  7].a[ 12] =        62.126369433000;     BAS[ATNO][  7].d[ 12] =        -0.707895401442;
  BAS[ATNO][  7].a[ 13] =        27.590930012000;     BAS[ATNO][  7].d[ 13] =         0.205978542336;
  BAS[ATNO][  7].a[ 14] =        11.175528881000;     BAS[ATNO][  7].d[ 14] =        -1.758703069487;
  BAS[ATNO][  7].a[ 15] =         5.295906513700;     BAS[ATNO][  7].d[ 15] =         6.180198623572;
  BAS[ATNO][  7].a[ 16] =         2.478279889500;     BAS[ATNO][  7].d[ 16] =        -8.600744019185;
  BAS[ATNO][  7].a[ 17] =         0.912620950600;     BAS[ATNO][  7].d[ 17] =         8.979952750247;
  BAS[ATNO][  7].a[ 18] =         0.404260675500;     BAS[ATNO][  7].d[ 18] =        -7.963866673248;
  BAS[ATNO][  7].a[ 19] =         0.165628863100;     BAS[ATNO][  7].d[ 19] =         4.615004745456;
  BAS[ATNO][  7].a[ 20] =         0.065129364700;     BAS[ATNO][  7].d[ 20] =        -1.572437289091;

  // Basis function   9 L = s
  InitBFNGauss(BAS[ATNO][  8]);
  BAS[ATNO][  8].l  = 0;
  BAS[ATNO][  8].ng = 21;
  BAS[ATNO][  8].a[  0] =   1673421.949400000041;     BAS[ATNO][  8].d[  0] =        -0.000019864061;
  BAS[ATNO][  8].a[  1] =    250601.753729999997;     BAS[ATNO][  8].d[  1] =        -0.000154426207;
  BAS[ATNO][  8].a[  2] =     57030.912120000001;     BAS[ATNO][  8].d[  2] =        -0.000811830721;
  BAS[ATNO][  8].a[  3] =     16153.303915000000;     BAS[ATNO][  8].d[  3] =        -0.003420287352;
  BAS[ATNO][  8].a[  4] =      5269.410928800000;     BAS[ATNO][  8].d[  4] =        -0.012363204803;
  BAS[ATNO][  8].a[  5] =      1902.031554100000;     BAS[ATNO][  8].d[  5] =        -0.039410304806;
  BAS[ATNO][  8].a[  6] =       741.576771590000;     BAS[ATNO][  8].d[  6] =        -0.110939311597;
  BAS[ATNO][  8].a[  7] =       307.209019060000;     BAS[ATNO][  8].d[  7] =        -0.266734829058;
  BAS[ATNO][  8].a[  8] =       133.527862030000;     BAS[ATNO][  8].d[  8] =        -0.507175815818;
  BAS[ATNO][  8].a[  9] =        60.253381291000;     BAS[ATNO][  8].d[  9] =        -0.642685045101;
  BAS[ATNO][  8].a[ 10] =       522.024262060000;     BAS[ATNO][  8].d[ 10] =         0.036882609897;
  BAS[ATNO][  8].a[ 11] =       161.512904690000;     BAS[ATNO][  8].d[ 11] =         0.335719834453;
  BAS[ATNO][  8].a[ 12] =        62.126369433000;     BAS[ATNO][  8].d[ 12] =         1.304110641788;
  BAS[ATNO][  8].a[ 13] =        27.590930012000;     BAS[ATNO][  8].d[ 13] =         2.482045275438;
  BAS[ATNO][  8].a[ 14] =        11.175528881000;     BAS[ATNO][  8].d[ 14] =        -8.211376699135;
  BAS[ATNO][  8].a[ 15] =         5.295906513700;     BAS[ATNO][  8].d[ 15] =        10.501952064725;
  BAS[ATNO][  8].a[ 16] =         2.478279889500;     BAS[ATNO][  8].d[ 16] =        -7.197094482750;
  BAS[ATNO][  8].a[ 17] =         0.912620950600;     BAS[ATNO][  8].d[ 17] =         3.961788269710;
  BAS[ATNO][  8].a[ 18] =         0.404260675500;     BAS[ATNO][  8].d[ 18] =        -2.448201524586;
  BAS[ATNO][  8].a[ 19] =         0.165628863100;     BAS[ATNO][  8].d[ 19] =         1.055850763325;
  BAS[ATNO][  8].a[ 20] =         0.065129364700;     BAS[ATNO][  8].d[ 20] =        -0.285248157878;

  // Basis function  10 L = s
  InitBFNGauss(BAS[ATNO][  9]);
  BAS[ATNO][  9].l  = 0;
  BAS[ATNO][  9].ng = 21;
  BAS[ATNO][  9].a[  0] =   1673421.949400000041;     BAS[ATNO][  9].d[  0] =        -0.000050191050;
  BAS[ATNO][  9].a[  1] =    250601.753729999997;     BAS[ATNO][  9].d[  1] =        -0.000390192793;
  BAS[ATNO][  9].a[  2] =     57030.912120000001;     BAS[ATNO][  9].d[  2] =        -0.002051274212;
  BAS[ATNO][  9].a[  3] =     16153.303915000000;     BAS[ATNO][  9].d[  3] =        -0.008642130752;
  BAS[ATNO][  9].a[  4] =      5269.410928800000;     BAS[ATNO][  9].d[  4] =        -0.031238437428;
  BAS[ATNO][  9].a[  5] =      1902.031554100000;     BAS[ATNO][  9].d[  5] =        -0.099579062247;
  BAS[ATNO][  9].a[  6] =       741.576771590000;     BAS[ATNO][  9].d[  6] =        -0.280313300536;
  BAS[ATNO][  9].a[  7] =       307.209019060000;     BAS[ATNO][  9].d[  7] =        -0.673965965937;
  BAS[ATNO][  9].a[  8] =       133.527862030000;     BAS[ATNO][  9].d[  8] =        -1.281494583274;
  BAS[ATNO][  9].a[  9] =        60.253381291000;     BAS[ATNO][  9].d[  9] =        -1.623889346379;
  BAS[ATNO][  9].a[ 10] =       522.024262060000;     BAS[ATNO][  9].d[ 10] =         0.164367100926;
  BAS[ATNO][  9].a[ 11] =       161.512904690000;     BAS[ATNO][  9].d[ 11] =         1.496133165908;
  BAS[ATNO][  9].a[ 12] =        62.126369433000;     BAS[ATNO][  9].d[ 12] =         5.811760232671;
  BAS[ATNO][  9].a[ 13] =        27.590930012000;     BAS[ATNO][  9].d[ 13] =        -7.759496997234;
  BAS[ATNO][  9].a[ 14] =        11.175528881000;     BAS[ATNO][  9].d[ 14] =         8.641174797258;
  BAS[ATNO][  9].a[ 15] =         5.295906513700;     BAS[ATNO][  9].d[ 15] =        -7.217495018568;
  BAS[ATNO][  9].a[ 16] =         2.478279889500;     BAS[ATNO][  9].d[ 16] =         3.963416661157;
  BAS[ATNO][  9].a[ 17] =         0.912620950600;     BAS[ATNO][  9].d[ 17] =        -1.942577437942;
  BAS[ATNO][  9].a[ 18] =         0.404260675500;     BAS[ATNO][  9].d[ 18] =         1.161759061245;
  BAS[ATNO][  9].a[ 19] =         0.165628863100;     BAS[ATNO][  9].d[ 19] =        -0.493069048745;
  BAS[ATNO][  9].a[ 20] =         0.065129364700;     BAS[ATNO][  9].d[ 20] =         0.131944832432;

  // Basis function  11 L = p
  InitBFNGauss(BAS[ATNO][ 10]);
  BAS[ATNO][ 10].l  = 1;
  BAS[ATNO][ 10].ng = 15;
  BAS[ATNO][ 10].a[  0] =      2868.450458100000;     BAS[ATNO][ 10].d[  0] =        -0.000648577427;
  BAS[ATNO][ 10].a[  1] =       679.718695900000;     BAS[ATNO][ 10].d[  1] =        -0.005646866219;
  BAS[ATNO][ 10].a[  2] =       220.367588240000;     BAS[ATNO][ 10].d[  2] =        -0.030711149951;
  BAS[ATNO][ 10].a[  3] =        83.620439734000;     BAS[ATNO][ 10].d[  3] =        -0.121290609217;
  BAS[ATNO][ 10].a[  4] =        34.964322657000;     BAS[ATNO][ 10].d[  4] =        -0.357566170110;
  BAS[ATNO][ 10].a[  5] =        15.525131784000;     BAS[ATNO][ 10].d[  5] =        -0.748491571120;
  BAS[ATNO][ 10].a[  6] =         7.099297980600;     BAS[ATNO][ 10].d[  6] =        -1.043052753401;
  BAS[ATNO][ 10].a[  7] =         3.302133660200;     BAS[ATNO][ 10].d[  7] =        -0.769659706899;
  BAS[ATNO][ 10].a[  8] =       128.787656670000;     BAS[ATNO][ 10].d[  8] =        -0.070222561806;
  BAS[ATNO][ 10].a[  9] =         8.435786797700;     BAS[ATNO][ 10].d[  9] =         1.475404799700;
  BAS[ATNO][ 10].a[ 10] =         1.461866185500;     BAS[ATNO][ 10].d[ 10] =         0.876321243321;
  BAS[ATNO][ 10].a[ 11] =         0.646580101000;     BAS[ATNO][ 10].d[ 11] =        -0.620866621168;
  BAS[ATNO][ 10].a[ 12] =         0.272292957500;     BAS[ATNO][ 10].d[ 12] =         0.322571334811;
  BAS[ATNO][ 10].a[ 13] =         0.109051824500;     BAS[ATNO][ 10].d[ 13] =        -0.121921857630;
  BAS[ATNO][ 10].a[ 14] =         0.030101149700;     BAS[ATNO][ 10].d[ 14] =         0.027008104336;

  // Basis function  12 L = p
  InitBFNGauss(BAS[ATNO][ 11]);
  BAS[ATNO][ 11].l  = 1;
  BAS[ATNO][ 11].ng = 15;
  BAS[ATNO][ 11].a[  0] =      2868.450458100000;     BAS[ATNO][ 11].d[  0] =        -0.000413985908;
  BAS[ATNO][ 11].a[  1] =       679.718695900000;     BAS[ATNO][ 11].d[  1] =        -0.003604385445;
  BAS[ATNO][ 11].a[  2] =       220.367588240000;     BAS[ATNO][ 11].d[  2] =        -0.019602876638;
  BAS[ATNO][ 11].a[  3] =        83.620439734000;     BAS[ATNO][ 11].d[  3] =        -0.077419596909;
  BAS[ATNO][ 11].a[  4] =        34.964322657000;     BAS[ATNO][ 11].d[  4] =        -0.228233899862;
  BAS[ATNO][ 11].a[  5] =        15.525131784000;     BAS[ATNO][ 11].d[  5] =        -0.477760942088;
  BAS[ATNO][ 11].a[  6] =         7.099297980600;     BAS[ATNO][ 11].d[  6] =        -0.665778861566;
  BAS[ATNO][ 11].a[  7] =         3.302133660200;     BAS[ATNO][ 11].d[  7] =        -0.491272528433;
  BAS[ATNO][ 11].a[  8] =       128.787656670000;     BAS[ATNO][ 11].d[  8] =        -0.070348247337;
  BAS[ATNO][ 11].a[  9] =         8.435786797700;     BAS[ATNO][ 11].d[  9] =         1.478045504212;
  BAS[ATNO][ 11].a[ 10] =         1.461866185500;     BAS[ATNO][ 11].d[ 10] =         1.765252617802;
  BAS[ATNO][ 11].a[ 11] =         0.646580101000;     BAS[ATNO][ 11].d[ 11] =        -1.048699969009;
  BAS[ATNO][ 11].a[ 12] =         0.272292957500;     BAS[ATNO][ 11].d[ 12] =         0.539719107451;
  BAS[ATNO][ 11].a[ 13] =         0.109051824500;     BAS[ATNO][ 11].d[ 13] =        -0.201541039190;
  BAS[ATNO][ 11].a[ 14] =         0.030101149700;     BAS[ATNO][ 11].d[ 14] =         0.043851030667;

  // Basis function  13 L = p
  InitBFNGauss(BAS[ATNO][ 12]);
  BAS[ATNO][ 12].l  = 1;
  BAS[ATNO][ 12].ng = 15;
  BAS[ATNO][ 12].a[  0] =      2868.450458100000;     BAS[ATNO][ 12].d[  0] =         0.000309196821;
  BAS[ATNO][ 12].a[  1] =       679.718695900000;     BAS[ATNO][ 12].d[  1] =         0.002692034923;
  BAS[ATNO][ 12].a[  2] =       220.367588240000;     BAS[ATNO][ 12].d[  2] =         0.014640950392;
  BAS[ATNO][ 12].a[  3] =        83.620439734000;     BAS[ATNO][ 12].d[  3] =         0.057822966427;
  BAS[ATNO][ 12].a[  4] =        34.964322657000;     BAS[ATNO][ 12].d[  4] =         0.170462798261;
  BAS[ATNO][ 12].a[  5] =        15.525131784000;     BAS[ATNO][ 12].d[  5] =         0.356828968603;
  BAS[ATNO][ 12].a[  6] =         7.099297980600;     BAS[ATNO][ 12].d[  6] =         0.497255350034;
  BAS[ATNO][ 12].a[  7] =         3.302133660200;     BAS[ATNO][ 12].d[  7] =         0.366920470430;
  BAS[ATNO][ 12].a[  8] =       128.787656670000;     BAS[ATNO][ 12].d[  8] =         0.062947228144;
  BAS[ATNO][ 12].a[  9] =         8.435786797700;     BAS[ATNO][ 12].d[  9] =        -1.322547058144;
  BAS[ATNO][ 12].a[ 10] =         1.461866185500;     BAS[ATNO][ 12].d[ 10] =        -1.147276916961;
  BAS[ATNO][ 12].a[ 11] =         0.646580101000;     BAS[ATNO][ 12].d[ 11] =         2.074490963715;
  BAS[ATNO][ 12].a[ 12] =         0.272292957500;     BAS[ATNO][ 12].d[ 12] =        -0.648298775809;
  BAS[ATNO][ 12].a[ 13] =         0.109051824500;     BAS[ATNO][ 12].d[ 13] =         0.235924251575;
  BAS[ATNO][ 12].a[ 14] =         0.030101149700;     BAS[ATNO][ 12].d[ 14] =        -0.049438673947;

  // Basis function  14 L = p
  InitBFNGauss(BAS[ATNO][ 13]);
  BAS[ATNO][ 13].l  = 1;
  BAS[ATNO][ 13].ng = 15;
  BAS[ATNO][ 13].a[  0] =      2868.450458100000;     BAS[ATNO][ 13].d[  0] =        -0.000249879201;
  BAS[ATNO][ 13].a[  1] =       679.718695900000;     BAS[ATNO][ 13].d[  1] =        -0.002175583607;
  BAS[ATNO][ 13].a[  2] =       220.367588240000;     BAS[ATNO][ 13].d[  2] =        -0.011832168816;
  BAS[ATNO][ 13].a[  3] =        83.620439734000;     BAS[ATNO][ 13].d[  3] =        -0.046729965055;
  BAS[ATNO][ 13].a[  4] =        34.964322657000;     BAS[ATNO][ 13].d[  4] =        -0.137760497221;
  BAS[ATNO][ 13].a[  5] =        15.525131784000;     BAS[ATNO][ 13].d[  5] =        -0.288373396655;
  BAS[ATNO][ 13].a[  6] =         7.099297980600;     BAS[ATNO][ 13].d[  6] =        -0.401859789735;
  BAS[ATNO][ 13].a[  7] =         3.302133660200;     BAS[ATNO][ 13].d[  7] =        -0.296528902276;
  BAS[ATNO][ 13].a[  8] =       128.787656670000;     BAS[ATNO][ 13].d[  8] =        -0.055245159309;
  BAS[ATNO][ 13].a[  9] =         8.435786797700;     BAS[ATNO][ 13].d[  9] =         1.160723435727;
  BAS[ATNO][ 13].a[ 10] =         1.461866185500;     BAS[ATNO][ 13].d[ 10] =         0.392593430789;
  BAS[ATNO][ 13].a[ 11] =         0.646580101000;     BAS[ATNO][ 13].d[ 11] =        -1.685608150396;
  BAS[ATNO][ 13].a[ 12] =         0.272292957500;     BAS[ATNO][ 13].d[ 12] =         2.120131038238;
  BAS[ATNO][ 13].a[ 13] =         0.109051824500;     BAS[ATNO][ 13].d[ 13] =        -0.383603854020;
  BAS[ATNO][ 13].a[ 14] =         0.030101149700;     BAS[ATNO][ 13].d[ 14] =         0.072083542039;

  // Basis function  15 L = p
  InitBFNGauss(BAS[ATNO][ 14]);
  BAS[ATNO][ 14].l  = 1;
  BAS[ATNO][ 14].ng = 15;
  BAS[ATNO][ 14].a[  0] =      2868.450458100000;     BAS[ATNO][ 14].d[  0] =         0.000220620618;
  BAS[ATNO][ 14].a[  1] =       679.718695900000;     BAS[ATNO][ 14].d[  1] =         0.001920842547;
  BAS[ATNO][ 14].a[  2] =       220.367588240000;     BAS[ATNO][ 14].d[  2] =         0.010446729425;
  BAS[ATNO][ 14].a[  3] =        83.620439734000;     BAS[ATNO][ 14].d[  3] =         0.041258311012;
  BAS[ATNO][ 14].a[  4] =        34.964322657000;     BAS[ATNO][ 14].d[  4] =         0.121629995505;
  BAS[ATNO][ 14].a[  5] =        15.525131784000;     BAS[ATNO][ 14].d[  5] =         0.254607493777;
  BAS[ATNO][ 14].a[  6] =         7.099297980600;     BAS[ATNO][ 14].d[  6] =         0.354805662037;
  BAS[ATNO][ 14].a[  7] =         3.302133660200;     BAS[ATNO][ 14].d[  7] =         0.261808063839;
  BAS[ATNO][ 14].a[  8] =       128.787656670000;     BAS[ATNO][ 14].d[  8] =         0.051070964902;
  BAS[ATNO][ 14].a[  9] =         8.435786797700;     BAS[ATNO][ 14].d[  9] =        -1.073021900706;
  BAS[ATNO][ 14].a[ 10] =         1.461866185500;     BAS[ATNO][ 14].d[ 10] =         0.174892928729;
  BAS[ATNO][ 14].a[ 11] =         0.646580101000;     BAS[ATNO][ 14].d[ 11] =         0.391442598838;
  BAS[ATNO][ 14].a[ 12] =         0.272292957500;     BAS[ATNO][ 14].d[ 12] =        -1.717381604592;
  BAS[ATNO][ 14].a[ 13] =         0.109051824500;     BAS[ATNO][ 14].d[ 13] =         1.872467617263;
  BAS[ATNO][ 14].a[ 14] =         0.030101149700;     BAS[ATNO][ 14].d[ 14] =        -0.188280089411;

  // Basis function  16 L = p
  InitBFNGauss(BAS[ATNO][ 15]);
  BAS[ATNO][ 15].l  = 1;
  BAS[ATNO][ 15].ng = 15;
  BAS[ATNO][ 15].a[  0] =      2868.450458100000;     BAS[ATNO][ 15].d[  0] =        -0.000353503492;
  BAS[ATNO][ 15].a[  1] =       679.718695900000;     BAS[ATNO][ 15].d[  1] =        -0.003077792789;
  BAS[ATNO][ 15].a[  2] =       220.367588240000;     BAS[ATNO][ 15].d[  2] =        -0.016738940184;
  BAS[ATNO][ 15].a[  3] =        83.620439734000;     BAS[ATNO][ 15].d[  3] =        -0.066108766874;
  BAS[ATNO][ 15].a[  4] =        34.964322657000;     BAS[ATNO][ 15].d[  4] =        -0.194889437315;
  BAS[ATNO][ 15].a[  5] =        15.525131784000;     BAS[ATNO][ 15].d[  5] =        -0.407961136497;
  BAS[ATNO][ 15].a[  6] =         7.099297980600;     BAS[ATNO][ 15].d[  6] =        -0.568510058259;
  BAS[ATNO][ 15].a[  7] =         3.302133660200;     BAS[ATNO][ 15].d[  7] =        -0.419498710283;
  BAS[ATNO][ 15].a[  8] =       128.787656670000;     BAS[ATNO][ 15].d[  8] =        -0.084423826637;
  BAS[ATNO][ 15].a[  9] =         8.435786797700;     BAS[ATNO][ 15].d[  9] =         1.773779193270;
  BAS[ATNO][ 15].a[ 10] =         1.461866185500;     BAS[ATNO][ 15].d[ 10] =        -1.007453243080;
  BAS[ATNO][ 15].a[ 11] =         0.646580101000;     BAS[ATNO][ 15].d[ 11] =         1.722261898383;
  BAS[ATNO][ 15].a[ 12] =         0.272292957500;     BAS[ATNO][ 15].d[ 12] =        -1.110879507103;
  BAS[ATNO][ 15].a[ 13] =         0.109051824500;     BAS[ATNO][ 15].d[ 13] =        -0.071913656463;
  BAS[ATNO][ 15].a[ 14] =         0.030101149700;     BAS[ATNO][ 15].d[ 14] =         0.866874493145;

  // Basis function  17 L = p
  InitBFNGauss(BAS[ATNO][ 16]);
  BAS[ATNO][ 16].l  = 1;
  BAS[ATNO][ 16].ng = 15;
  BAS[ATNO][ 16].a[  0] =      2868.450458100000;     BAS[ATNO][ 16].d[  0] =         0.000344882060;
  BAS[ATNO][ 16].a[  1] =       679.718695900000;     BAS[ATNO][ 16].d[  1] =         0.003002729934;
  BAS[ATNO][ 16].a[  2] =       220.367588240000;     BAS[ATNO][ 16].d[  2] =         0.016330701967;
  BAS[ATNO][ 16].a[  3] =        83.620439734000;     BAS[ATNO][ 16].d[  3] =         0.064496470945;
  BAS[ATNO][ 16].a[  4] =        34.964322657000;     BAS[ATNO][ 16].d[  4] =         0.190136369586;
  BAS[ATNO][ 16].a[  5] =        15.525131784000;     BAS[ATNO][ 16].d[  5] =         0.398011562321;
  BAS[ATNO][ 16].a[  6] =         7.099297980600;     BAS[ATNO][ 16].d[  6] =         0.554644931196;
  BAS[ATNO][ 16].a[  7] =         3.302133660200;     BAS[ATNO][ 16].d[  7] =         0.409267751593;
  BAS[ATNO][ 16].a[  8] =       128.787656670000;     BAS[ATNO][ 16].d[  8] =         0.083190723524;
  BAS[ATNO][ 16].a[  9] =         8.435786797700;     BAS[ATNO][ 16].d[  9] =        -1.747871191571;
  BAS[ATNO][ 16].a[ 10] =         1.461866185500;     BAS[ATNO][ 16].d[ 10] =         1.205539791876;
  BAS[ATNO][ 16].a[ 11] =         0.646580101000;     BAS[ATNO][ 16].d[ 11] =        -2.436439285854;
  BAS[ATNO][ 16].a[ 12] =         0.272292957500;     BAS[ATNO][ 16].d[ 12] =         2.601715949432;
  BAS[ATNO][ 16].a[ 13] =         0.109051824500;     BAS[ATNO][ 16].d[ 13] =        -1.966579032417;
  BAS[ATNO][ 16].a[ 14] =         0.030101149700;     BAS[ATNO][ 16].d[ 14] =         1.150632707031;

  // Basis function  18 L = d
  InitBFNGauss(BAS[ATNO][ 17]);
  BAS[ATNO][ 17].l  = 2;
  BAS[ATNO][ 17].ng = 5;
  BAS[ATNO][ 17].a[  0] =         6.315000000000;     BAS[ATNO][ 17].d[  0] =         0.751794759395;
  BAS[ATNO][ 17].a[  1] =         1.562000000000;     BAS[ATNO][ 17].d[  1] =         0.484013172753;
  BAS[ATNO][ 17].a[  2] =         0.715000000000;     BAS[ATNO][ 17].d[  2] =        -0.170643025583;
  BAS[ATNO][ 17].a[  3] =         0.297000000000;     BAS[ATNO][ 17].d[  3] =         0.066983348076;
  BAS[ATNO][ 17].a[  4] =         0.101050282200;     BAS[ATNO][ 17].d[  4] =        -0.017501769496;

  // Basis function  19 L = d
  InitBFNGauss(BAS[ATNO][ 18]);
  BAS[ATNO][ 18].l  = 2;
  BAS[ATNO][ 18].ng = 5;
  BAS[ATNO][ 18].a[  0] =         6.315000000000;     BAS[ATNO][ 18].d[  0] =        -0.584282632796;
  BAS[ATNO][ 18].a[  1] =         1.562000000000;     BAS[ATNO][ 18].d[  1] =         0.428136716794;
  BAS[ATNO][ 18].a[  2] =         0.715000000000;     BAS[ATNO][ 18].d[  2] =         0.674652070349;
  BAS[ATNO][ 18].a[  3] =         0.297000000000;     BAS[ATNO][ 18].d[  3] =        -0.059426064191;
  BAS[ATNO][ 18].a[  4] =         0.101050282200;     BAS[ATNO][ 18].d[  4] =         0.016697697619;

  // Basis function  20 L = d
  InitBFNGauss(BAS[ATNO][ 19]);
  BAS[ATNO][ 19].l  = 2;
  BAS[ATNO][ 19].ng = 5;
  BAS[ATNO][ 19].a[  0] =         6.315000000000;     BAS[ATNO][ 19].d[  0] =        -0.460316697110;
  BAS[ATNO][ 19].a[  1] =         1.562000000000;     BAS[ATNO][ 19].d[  1] =         0.923874587604;
  BAS[ATNO][ 19].a[  2] =         0.715000000000;     BAS[ATNO][ 19].d[  2] =        -0.287657419217;
  BAS[ATNO][ 19].a[  3] =         0.297000000000;     BAS[ATNO][ 19].d[  3] =        -0.910040613372;
  BAS[ATNO][ 19].a[  4] =         0.101050282200;     BAS[ATNO][ 19].d[  4] =         0.072963966222;

  // Basis function  21 L = d
  InitBFNGauss(BAS[ATNO][ 20]);
  BAS[ATNO][ 20].l  = 2;
  BAS[ATNO][ 20].ng = 5;
  BAS[ATNO][ 20].a[  0] =         6.315000000000;     BAS[ATNO][ 20].d[  0] =         0.439891915924;
  BAS[ATNO][ 20].a[  1] =         1.562000000000;     BAS[ATNO][ 20].d[  1] =        -1.336775675242;
  BAS[ATNO][ 20].a[  2] =         0.715000000000;     BAS[ATNO][ 20].d[  2] =         1.707872292377;
  BAS[ATNO][ 20].a[  3] =         0.297000000000;     BAS[ATNO][ 20].d[  3] =        -0.658575546308;
  BAS[ATNO][ 20].a[  4] =         0.101050282200;     BAS[ATNO][ 20].d[  4] =        -0.620478210095;

  // Basis function  22 L = d
  InitBFNGauss(BAS[ATNO][ 21]);
  BAS[ATNO][ 21].l  = 2;
  BAS[ATNO][ 21].ng = 5;
  BAS[ATNO][ 21].a[  0] =         6.315000000000;     BAS[ATNO][ 21].d[  0] =         0.377600437187;
  BAS[ATNO][ 21].a[  1] =         1.562000000000;     BAS[ATNO][ 21].d[  1] =        -1.330461782784;
  BAS[ATNO][ 21].a[  2] =         0.715000000000;     BAS[ATNO][ 21].d[  2] =         2.189887297516;
  BAS[ATNO][ 21].a[  3] =         0.297000000000;     BAS[ATNO][ 21].d[  3] =        -2.013421619550;
  BAS[ATNO][ 21].a[  4] =         0.101050282200;     BAS[ATNO][ 21].d[  4] =         1.282253663896;

  // Basis function  23 L = f
  InitBFNGauss(BAS[ATNO][ 22]);
  BAS[ATNO][ 22].l  = 3;
  BAS[ATNO][ 22].ng = 2;
  BAS[ATNO][ 22].a[  0] =         0.543000000000;     BAS[ATNO][ 22].d[  0] =         0.074353614356;
  BAS[ATNO][ 22].a[  1] =         1.325000000000;     BAS[ATNO][ 22].d[  1] =         0.950198274774;

  // Basis function  24 L = f
  InitBFNGauss(BAS[ATNO][ 23]);
  BAS[ATNO][ 23].l  = 3;
  BAS[ATNO][ 23].ng = 2;
  BAS[ATNO][ 23].a[  0] =         0.543000000000;     BAS[ATNO][ 23].d[  0] =         1.311176320628;
  BAS[ATNO][ 23].a[  1] =         1.325000000000;     BAS[ATNO][ 23].d[  1] =        -0.906551180221;

  // Basis function  25 L = g
  InitBFNGauss(BAS[ATNO][ 24]);
  BAS[ATNO][ 24].l  = 4;
  BAS[ATNO][ 24].ng = 1;
  BAS[ATNO][ 24].a[  0] =         1.007000000000;     BAS[ATNO][ 24].d[  0] =         1.000000000000;

-------
TIMINGS
-------

Total SCF time: 0 days 0 hours 0 min 1 sec 

Total time                  ....       1.960 sec
Sum of individual times     ....       1.699 sec  ( 86.6%)

Fock matrix formation       ....       1.172 sec  ( 59.8%)
  XC integration            ....       0.054 sec  (  4.6% of F)
    Basis function eval.    ....       0.010 sec  ( 17.7% of XC)
    Density eval.           ....       0.006 sec  ( 10.3% of XC)
    XC-Functional eval.     ....       0.004 sec  (  7.5% of XC)
    XC-Potential eval.      ....       0.011 sec  ( 20.1% of XC)
Diagonalization             ....       0.004 sec  (  0.2%)
Density matrix formation    ....       0.001 sec  (  0.1%)
Population analysis         ....       0.001 sec  (  0.1%)
Initial guess               ....       0.078 sec  (  4.0%)
Orbital Transformation      ....       0.000 sec  (  0.0%)
Orbital Orthonormalization  ....       0.000 sec  (  0.0%)
DIIS solution               ....       0.001 sec  (  0.0%)
SOSCF solution              ....       0.003 sec  (  0.2%)
Grid generation             ....       0.439 sec  ( 22.4%)

-------------------------   --------------------
FINAL SINGLE POINT ENERGY      -680.188910709610
-------------------------   --------------------


                            ***************************************
                            *     ORCA property calculations      *
                            ***************************************

                                    ---------------------
                                    Active property flags
                                    ---------------------
   (+) Dipole Moment


------------------------------------------------------------------------------
                       ORCA ELECTRIC PROPERTIES CALCULATION
------------------------------------------------------------------------------

Dipole Moment Calculation                       ... on
Quadrupole Moment Calculation                   ... off
Polarizability Calculation                      ... off
GBWName                                         ... Ar_14_.gbw
Electron density file                           ... Ar_14_.scfp
The origin for moment calculation is the CENTER OF MASS  = ( 0.000000,  0.000000  0.000000)

-------------
DIPOLE MOMENT
-------------
                                X             Y             Z
Electronic contribution:      0.00000       0.00000       0.00000
Nuclear contribution   :      0.00000       0.00000       0.00000
                        -----------------------------------------
Total Dipole Moment    :      0.00000       0.00000       0.00000
                        -----------------------------------------
Magnitude (a.u.)       :      0.00000
Magnitude (Debye)      :      0.00000



--------------------
Rotational spectrum 
--------------------
 
Rotational constants in cm-1:     0.000000     0.000000     0.000000 
Rotational constants in MHz :     0.000000     0.000000     0.000000 

 Dipole components along the rotational axes: 
x,y,z [a.u.] :     0.000000     0.000000     0.000000 
x,y,z [Debye]:     0.000000     0.000000     0.000000 

 

Timings for individual modules:

Sum of individual times         ...        5.897 sec (=   0.098 min)
GTO integral calculation        ...        3.124 sec (=   0.052 min)  53.0 %
Relativistic integrals          ...        0.465 sec (=   0.008 min)   7.9 %
SCF iterations                  ...        2.308 sec (=   0.038 min)  39.1 %
                             ****ORCA TERMINATED NORMALLY****
TOTAL RUN TIME: 0 days 0 hours 0 minutes 6 seconds 444 msec
