
                                 *****************
                                 * O   R   C   A *
                                 *****************

           --- An Ab Initio, DFT and Semiempirical electronic structure package ---

                  #######################################################
                  #                        -***-                        #
                  #          Department of theory and spectroscopy      #
                  #               Directorship: Frank Neese             #
                  #        Max Planck Institute fuer Kohlenforschung    #
                  #                Kaiser Wilhelm Platz 1               #
                  #                 D-45470 Muelheim/Ruhr               #
                  #                      Germany                        #
                  #                                                     #
                  #                  All rights reserved                #
                  #                        -***-                        #
                  #######################################################


                         Program Version 4.2.1 -  RELEASE  -


 With contributions from (in alphabetic order):
   Daniel Aravena         : Magnetic Suceptibility
   Michael Atanasov       : Ab Initio Ligand Field Theory (pilot matlab implementation)
   Alexander A. Auer      : GIAO ZORA, VPT2
   Ute Becker             : Parallelization
   Giovanni Bistoni       : ED, misc. LED, open-shell LED, HFLD
   Martin Brehm           : Molecular dynamics
   Dmytro Bykov           : SCF Hessian
   Vijay G. Chilkuri      : MRCI spin determinant printing, contributions to CSF-ICE
   Dipayan Datta          : RHF DLPNO-CCSD density
   Achintya Kumar Dutta   : EOM-CC, STEOM-CC
   Dmitry Ganyushin       : Spin-Orbit,Spin-Spin,Magnetic field MRCI
   Miquel Garcia          : C-PCM Hessian, Gaussian charge scheme
   Yang Guo               : DLPNO-NEVPT2, CIM, IAO-localization
   Andreas Hansen         : Spin unrestricted coupled pair/coupled cluster methods
   Benjamin Helmich-Paris : CASSCF linear response (MC-RPA)
   Lee Huntington         : MR-EOM, pCC
   Robert Izsak           : Overlap fitted RIJCOSX, COSX-SCS-MP3, EOM
   Christian Kollmar      : KDIIS, OOCD, Brueckner-CCSD(T), CCSD density
   Simone Kossmann        : Meta GGA functionals, TD-DFT gradient, OOMP2, MP2 Hessian
   Martin Krupicka        : AUTO-CI
   Lucas Lang             : DCDCAS
   Dagmar Lenk            : GEPOL surface, SMD
   Dimitrios Liakos       : Extrapolation schemes; Compound Job, initial MDCI parallelization
   Dimitrios Manganas     : Further ROCIS development; embedding schemes
   Dimitrios Pantazis     : SARC Basis sets
   Taras Petrenko         : DFT Hessian,TD-DFT gradient, ASA, ECA, R-Raman, ABS, FL, XAS/XES, NRVS
   Peter Pinski           : DLPNO-MP2, DLPNO-MP2 Gradient
   Christoph Reimann      : Effective Core Potentials
   Marius Retegan         : Local ZFS, SOC
   Christoph Riplinger    : Optimizer, TS searches, QM/MM, DLPNO-CCSD(T), (RO)-DLPNO pert. Triples
   Tobias Risthaus        : Range-separated hybrids, TD-DFT gradient, RPA, STAB
   Michael Roemelt        : Original ROCIS implementation
   Masaaki Saitow         : Open-shell DLPNO-CCSD energy and density
   Barbara Sandhoefer     : DKH picture change effects
   Avijit Sen             : IP-ROCIS
   Kantharuban Sivalingam : CASSCF convergence, NEVPT2, FIC-MRCI
   Bernardo de Souza      : ESD, SOC TD-DFT
   Georgi Stoychev        : AutoAux, RI-MP2 NMR
   Willem Van den Heuvel  : Paramagnetic NMR
   Boris Wezisla          : Elementary symmetry handling
   Frank Wennmohs         : Technical directorship


 We gratefully acknowledge several colleagues who have allowed us to
 interface, adapt or use parts of their codes:
   Stefan Grimme, W. Hujo, H. Kruse,             : VdW corrections, initial TS optimization,
                  C. Bannwarth                     DFT functionals, gCP, sTDA/sTD-DF
   Ed Valeev, F. Pavosevic, A. Kumar             : LibInt (2-el integral package), F12 methods
   Garnet Chan, S. Sharma, J. Yang, R. Olivares  : DMRG
   Ulf Ekstrom                                   : XCFun DFT Library
   Mihaly Kallay                                 : mrcc  (arbitrary order and MRCC methods)
   Andreas Klamt, Michael Diedenhofen            : otool_cosmo (COSMO solvation model)
   Jiri Pittner, Ondrej Demel                    : Mk-CCSD
   Frank Weinhold                                : gennbo (NPA and NBO analysis)
   Christopher J. Cramer and Donald G. Truhlar   : smd solvation model
   Lars Goerigk                                  : TD-DFT with DH, B97 family of functionals
   V. Asgeirsson, H. Jonsson                     : NEB implementation
   FAccTs GmbH                                   : IRC, NEB, NEB-TS, Multilevel, MM, QM/MM, CI optimization
   S Lehtola, MJT Oliveira, MAL Marques          : LibXC Library


 Your calculation uses the libint2 library for the computation of 2-el integrals
 For citations please refer to: http://libint.valeyev.net

 Your ORCA version has been built with support for libXC version: 4.2.3
 For citations please refer to: https://tddft.org/programs/libxc/

 This ORCA versions uses:
   CBLAS   interface :  Fast vector & matrix operations
   LAPACKE interface :  Fast linear algebra routines
   SCALAPACK package :  Parallel linear algebra routines




***************************************
The coordinates will be read from file: ../xyzfiles/H2O.xyz
***************************************


----- Orbital basis set information -----
Your calculation utilizes the basis: def2-QZVPPD
   F. Weigend and R. Ahlrichs, Phys. Chem. Chem. Phys. 7, 3297 (2005).
   D. Rappoport and F. Furche, J. Chem. Phys. 133 134105 (2010).

================================================================================
                                        WARNINGS
                       Please study these warnings very carefully!
================================================================================


INFO   : the flag for use of LIBINT has been found!

================================================================================
                                       INPUT FILE
================================================================================
NAME = H2O_14_.inp
|  1> 
|  2> ! pbe def2-qzvppd nori grid5 finalgrid6 tightscf
|  3> %pal nprocs 18 end
|  4> 
|  5> %rel
|  6>   method zora
|  7>   modelpot 1, 0, 0, 0
|  8>   c 13.703599908400001
|  9> end
| 10> 
| 11> *xyzfile 0 1 ../xyzfiles/H2O.xyz
| 12> 
| 13>                          ****END OF INPUT****
================================================================================

                       ****************************
                       * Single Point Calculation *
                       ****************************

---------------------------------
CARTESIAN COORDINATES (ANGSTROEM)
---------------------------------
  O      0.000000    0.000000    0.117300
  H      0.000000    0.757200   -0.469200
  H      0.000000   -0.757200   -0.469200

----------------------------
CARTESIAN COORDINATES (A.U.)
----------------------------
  NO LB      ZA    FRAG     MASS         X           Y           Z
   0 O     8.0000    0    15.999    0.000000    0.000000    0.221665
   1 H     1.0000    0     1.008    0.000000    1.430901   -0.886660
   2 H     1.0000    0     1.008    0.000000   -1.430901   -0.886660

--------------------------------
INTERNAL COORDINATES (ANGSTROEM)
--------------------------------
 O      0   0   0     0.000000000000     0.00000000     0.00000000
 H      1   0   0     0.957775594803     0.00000000     0.00000000
 H      1   2   0     0.957775594803   104.47983882     0.00000000

---------------------------
INTERNAL COORDINATES (A.U.)
---------------------------
 O      0   0   0     0.000000000000     0.00000000     0.00000000
 H      1   0   0     1.809933571931     0.00000000     0.00000000
 H      1   2   0     1.809933571931   104.47983882     0.00000000

---------------------
BASIS SET INFORMATION
---------------------
There are 2 groups of distinct atoms

 Group   1 Type O   : 16s9p4d2f1g contracted to 8s5p4d2f1g pattern {82111111/51111/1111/11/1}
 Group   2 Type H   : 7s4p2d1f contracted to 4s4p2d1f pattern {4111/1111/11/1}

Atom   0O    basis set group =>   1
Atom   1H    basis set group =>   2
Atom   2H    basis set group =>   2


           ************************************************************
           *        Program running with 18 parallel MPI-processes    *
           *              working on a common directory               *
           ************************************************************
------------------------------------------------------------------------------
                           ORCA GTO INTEGRAL CALCULATION
------------------------------------------------------------------------------

                         BASIS SET STATISTICS AND STARTUP INFO

 # of primitive gaussian shells          ...   60
 # of primitive gaussian functions       ...  158
 # of contracted shells                  ...   42
 # of contracted basis functions         ...  132
 Highest angular momentum                ...    4
 Maximum contraction depth               ...    8
 Integral package used                   ... LIBINT
 Integral threshhold            Thresh   ...  2.500e-11
 Primitive cut-off              TCut     ...  2.500e-12


------------------------------ INTEGRAL EVALUATION ----------------------------


 * One electron integrals 
 Pre-screening matrix                    ... done
 Shell pair data                         ... done (   0.000 sec)



           ************************************************************
           *        Program running with 18 parallel MPI-processes    *
           *              working on a common directory               *
           ************************************************************
------------------------------------------------------------------------------
                          ORCA RELATIVISTIC HAMILTONIAN
------------------------------------------------------------------------------

Relativistic Method            ... ZORA(MP)
Treatment of potential         ... Van Wuellen
Nucleus model                  ... Point Nucleus
Speed of light used            ...  13.70359990840000


            *************************************************
            *         ZERO ORDER REGULAR APPROXIMATION      *
            *                     ZORA(MP)                  *
            *            Programmed by FN according to      *
            *                   C. van Wuellen              *
            *       J. Chem. Phys. (1998) vol 109, 392-399  *
            *************************************************

Terms included in model potential: +V(e,N)
Basis function cutoff value   ... 1.000000e-11
Loading the fitted atomic densities  (DKH4)  ... done
Calculating the cutoffs                      ... done
Number of fit functions                      ... 21
Setting up the integration grid ... done


           ************************************************************
           *        Program running with 18 parallel MPI-processes    *
           *              working on a common directory               *
           ************************************************************
-------------------------------------------------------------------------------
                                 ORCA SCF
-------------------------------------------------------------------------------

------------
SCF SETTINGS
------------
Hamiltonian:
 Density Functional     Method          .... DFT(GTOs)
 Exchange Functional    Exchange        .... PBE
   PBE kappa parameter   XKappa         ....  0.804000
   PBE mue parameter    XMuePBE         ....  0.219520
 Correlation Functional Correlation     .... PBE
   PBE beta parameter  CBetaPBE         ....  0.066725
 LDA part of GGA corr.  LDAOpt          .... PW91-LDA
 Gradients option       PostSCFGGA      .... off
   Density functional embedding theory  .... OFF
   NL short-range parameter             ....  6.400000

Relativistic Settings:
 Scalar relativistic method             .... ZORA
 Speed of light used       Velit        ....       13.7035999
Orbital energies will be scaled


General Settings:
 Integral files         IntName         .... H2O_14_
 Hartree-Fock type      HFTyp           .... RHF
 Total Charge           Charge          ....    0
 Multiplicity           Mult            ....    1
 Number of Electrons    NEL             ....   10
 Basis Dimension        Dim             ....  132
 Nuclear Repulsion      ENuc            ....      9.1895337174 Eh

Convergence Acceleration:
 DIIS                   CNVDIIS         .... on
   Start iteration      DIISMaxIt       ....    12
   Startup error        DIISStart       ....  0.200000
   # of expansion vecs  DIISMaxEq       ....     5
   Bias factor          DIISBfac        ....   1.050
   Max. coefficient     DIISMaxC        ....  10.000
 Newton-Raphson         CNVNR           .... off
 SOSCF                  CNVSOSCF        .... on
   Start iteration      SOSCFMaxIt      ....   150
   Startup grad/error   SOSCFStart      ....  0.003300
 Level Shifting         CNVShift        .... on
   Level shift para.    LevelShift      ....    0.2500
   Turn off err/grad.   ShiftErr        ....    0.0010
 Zerner damping         CNVZerner       .... off
 Static damping         CNVDamp         .... on
   Fraction old density DampFac         ....    0.7000
   Max. Damping (<1)    DampMax         ....    0.9800
   Min. Damping (>=0)   DampMin         ....    0.0000
   Turn off err/grad.   DampErr         ....    0.1000
 Fernandez-Rico         CNVRico         .... off

SCF Procedure:
 Maximum # iterations   MaxIter         ....   125
 SCF integral mode      SCFMode         .... Direct
   Integral package                     .... LIBINT
 Reset frequency        DirectResetFreq ....    20
 Integral Threshold     Thresh          ....  2.500e-11 Eh
 Primitive CutOff       TCut            ....  2.500e-12 Eh

Convergence Tolerance:
 Convergence Check Mode ConvCheckMode   .... Total+1el-Energy
 Convergence forced     ConvForced      .... 0
 Energy Change          TolE            ....  1.000e-08 Eh
 1-El. energy change                    ....  1.000e-05 Eh
 Orbital Gradient       TolG            ....  1.000e-05
 Orbital Rotation angle TolX            ....  1.000e-05
 DIIS Error             TolErr          ....  5.000e-07


Diagonalization of the overlap matrix:
Smallest eigenvalue                        ... 1.323e-04
Time for diagonalization                   ...    0.033 sec
Threshold for overlap eigenvalues          ... 1.000e-08
Number of eigenvalues below threshold      ... 0
Time for construction of square roots      ...    0.001 sec
Total time needed                          ...    0.034 sec

-------------------
DFT GRID GENERATION
-------------------

General Integration Accuracy     IntAcc      ...  5.010
Radial Grid Type                 RadialGrid  ... Gauss-Chebyshev
Angular Grid (max. acc.)         AngularGrid ... Lebedev-434
Angular grid pruning method      GridPruning ... 3 (G Style)
Weight generation scheme         WeightScheme... Becke
Basis function cutoff            BFCut       ...    1.0000e-11
Integration weight cutoff        WCut        ...    1.0000e-14
Grids for H and He will be reduced by one unit

# of grid points (after initial pruning)     ...  24226 (   0.0 sec)
# of grid points (after weights+screening)   ...  24010 (   0.0 sec)
nearest neighbour list constructed           ...    0.0 sec
Grid point re-assignment to atoms done       ...    0.0 sec
Grid point division into batches done        ...    0.2 sec
Reduced shell lists constructed in    0.2 sec

Total number of grid points                  ...    24010
Total number of batches                      ...      376
Average number of points per batch           ...       63
Average number of grid points per atom       ...     8003
Average number of shells per batch           ...    16.09 (38.31%)
Average number of basis functions per batch  ...    42.73 (32.37%)
Average number of large shells per batch     ...    11.86 (73.73%)
Average number of large basis fcns per batch ...    29.68 (69.47%)
Maximum spatial batch extension              ...  16.27, 13.72, 10.73 au
Average spatial batch extension              ...   0.47,  0.42,  0.38 au

Time for grid setup =    0.173 sec

------------------------------
INITIAL GUESS: MODEL POTENTIAL
------------------------------
Loading ZORA relativistic densities                ... done
Calculating cut-offs                               ... done
Setting up the integral package                    ... done
Initializing the effective Hamiltonian             ... done
Starting the Coulomb interaction                   ... done (   0.0 sec)
Reading the grid                                   ... done
Mapping shells                                     ... done
Starting the XC term evaluation                    ... done (   0.0 sec)
  promolecular density results
     # of electrons  =      9.999021954
     EX              =     -8.741905825
     EC              =     -0.316152988
     EX+EC           =     -9.058058813
Transforming the Hamiltonian                       ... done (   0.0 sec)
Diagonalizing the Hamiltonian                      ... done (   0.0 sec)
Back transforming the eigenvectors                 ... done (   0.0 sec)
Now organizing SCF variables                       ... done
                      ------------------
                      INITIAL GUESS DONE (   0.3 sec)
                      ------------------
--------------
SCF ITERATIONS
--------------
ITER       Energy         Delta-E        Max-DP      RMS-DP      [F,P]     Damp
               ***  Starting incremental Fock matrix formation  ***
  0    -88.7702267321   0.000000000000 0.12763998  0.00306781  1.0448960 0.7000
  1    -89.1630033817  -0.392776649582 0.06334696  0.00138733  0.5467478 0.7000
  2    -89.2376641619  -0.074660780198 0.02462250  0.00057132  0.3391823 0.7000
  3    -89.3211232705  -0.083459108638 0.01600621  0.00047704  0.2252130 0.7000
                               ***Turning on DIIS***
  4    -89.3825618779  -0.061438607423 0.01161581  0.00034205  0.1529926 0.7000
  5    -89.4236970963  -0.041135218395 0.00819308  0.00026345  0.1024212 0.7000
  6    -89.4523350765  -0.028637980131 0.02206930  0.00064619  0.0674002 0.0000
  7    -89.5185716349  -0.066236558435 0.00216941  0.00006859  0.0065772 0.0000
                      *** Initiating the SOSCF procedure ***
                           *** Shutting down DIIS ***
                      *** Re-Reading the Fockian *** 
                      *** Removing any level shift *** 
ITER      Energy       Delta-E        Grad      Rot      Max-DP    RMS-DP
  8    -89.51860318  -0.0000315486  0.000305  0.000305  0.000569  0.000018
               *** Restarting incremental Fock matrix formation ***
  9    -89.51860586  -0.0000026721  0.000120  0.000388  0.000217  0.000007
 10    -89.51860590  -0.0000000395  0.000093  0.000081  0.000134  0.000004
 11    -89.51860595  -0.0000000504  0.000061  0.000113  0.000109  0.000003
 12    -89.51860597  -0.0000000277  0.000011  0.000031  0.000012  0.000000
 13    -89.51860597  -0.0000000015  0.000003  0.000002  0.000004  0.000000
                 **** Energy Check signals convergence ****
              ***Rediagonalizing the Fockian in SOSCF/NRSCF***

               *****************************************************
               *                     SUCCESS                       *
               *           SCF CONVERGED AFTER  14 CYCLES          *
               *****************************************************

Setting up the final grid:

General Integration Accuracy     IntAcc      ...  5.340
Radial Grid Type                 RadialGrid  ... Gauss-Chebyshev
Angular Grid (max. acc.)         AngularGrid ... Lebedev-590
Angular grid pruning method      GridPruning ... 3 (G Style)
Weight generation scheme         WeightScheme... Becke
Basis function cutoff            BFCut       ...    1.0000e-11
Integration weight cutoff        WCut        ...    1.0000e-14
Grids for H and He will be reduced by one unit

# of grid points (after initial pruning)     ...  38728 (   0.0 sec)
# of grid points (after weights+screening)   ...  38328 (   0.0 sec)
nearest neighbour list constructed           ...    0.0 sec
Grid point re-assignment to atoms done       ...    0.0 sec
Grid point division into batches done        ...    0.3 sec
Reduced shell lists constructed in    0.3 sec

Total number of grid points                  ...    38328
Total number of batches                      ...      600
Average number of points per batch           ...       63
Average number of grid points per atom       ...    12776
Average number of shells per batch           ...    14.74 (35.10%)
Average number of basis functions per batch  ...    38.46 (29.13%)
Average number of large shells per batch     ...    10.63 (72.09%)
Average number of large basis fcns per batch ...    26.46 (68.80%)
Maximum spatial batch extension              ...  14.03, 13.64, 12.40 au
Average spatial batch extension              ...   0.39,  0.38,  0.36 au

Final grid set up in    0.4 sec
Final integration                            ... done (   0.0 sec)
Change in XC energy                          ...     0.000014409
Integrated number of electrons               ...    10.000000257
Previous integrated no of electrons          ...    10.000000618

----------------
TOTAL SCF ENERGY
----------------

Total Energy       :          -89.51859157 Eh           -2435.92472 eV

Components:
Nuclear Repulsion  :            9.18953372 Eh             250.05993 eV
Electronic Energy  :          -98.70812528 Eh           -2685.98464 eV
One Electron Energy:         -139.15300559 Eh           -3786.54579 eV
Two Electron Energy:           40.44488031 Eh            1100.56114 eV

Virial components:
Potential Energy   :         -192.03456646 Eh           -5225.52621 eV
Kinetic Energy     :          102.51597490 Eh            2789.60150 eV
Virial Ratio       :            1.87321602


DFT components:
N(Alpha)           :        5.000000128577 electrons
N(Beta)            :        5.000000128577 electrons
N(Total)           :       10.000000257155 electrons
E(X)               :      -10.426883970514 Eh       
E(C)               :       -0.315393471660 Eh       
E(XC)              :      -10.742277442174 Eh       
DFET-embed. en.    :        0.000000000000 Eh       

---------------
SCF CONVERGENCE
---------------

  Last Energy change         ...   -8.7084e-11  Tolerance :   1.0000e-08
  Last MAX-Density change    ...    2.1964e-06  Tolerance :   1.0000e-07
  Last RMS-Density change    ...    5.1677e-08  Tolerance :   5.0000e-09
  Last Orbital Gradient      ...    5.2021e-07  Tolerance :   1.0000e-05
  Last Orbital Rotation      ...    1.4048e-06  Tolerance :   1.0000e-05

             **** THE GBW FILE WAS UPDATED (H2O_14_.gbw) ****
             **** DENSITY FILE WAS UPDATED (H2O_14_.scfp) ****
             **** ENERGY FILE WAS UPDATED (H2O_14_.en.tmp) ****
             **** THE GBW FILE WAS UPDATED (H2O_14_.gbw) ****
             **** DENSITY FILE WAS UPDATED (H2O_14_.scfp) ****
----------------
ORBITAL ENERGIES
----------------

  NO   OCC          E(Eh)            E(eV) 
   0   2.0000     -23.054341      -627.3405 
   1   2.0000      -1.157995       -31.5107 
   2   2.0000      -0.463928       -12.6241 
   3   2.0000      -0.356144        -9.6912 
   4   2.0000      -0.246490        -6.7073 
   5   0.0000      -0.045531        -1.2389 
   6   0.0000       0.029926         0.8143 
   7   0.0000       0.051029         1.3886 
   8   0.0000       0.055191         1.5018 
   9   0.0000       0.109217         2.9720 
  10   0.0000       0.132255         3.5988 
  11   0.0000       0.156853         4.2682 
  12   0.0000       0.158358         4.3091 
  13   0.0000       0.175740         4.7821 
  14   0.0000       0.202780         5.5179 
  15   0.0000       0.207246         5.6394 
  16   0.0000       0.274760         7.4766 
  17   0.0000       0.307144         8.3578 
  18   0.0000       0.309621         8.4252 
  19   0.0000       0.341112         9.2821 
  20   0.0000       0.403659        10.9841 
  21   0.0000       0.413342        11.2476 
  22   0.0000       0.417238        11.3536 
  23   0.0000       0.467918        12.7327 
  24   0.0000       0.478966        13.0333 
  25   0.0000       0.482162        13.1203 
  26   0.0000       0.604971        16.4621 
  27   0.0000       0.712564        19.3899 
  28   0.0000       0.750885        20.4326 
  29   0.0000       0.785384        21.3714 
  30   0.0000       0.835324        22.7303 
  31   0.0000       0.884498        24.0684 
  32   0.0000       0.969498        26.3814 
  33   0.0000       1.038833        28.2681 
  34   0.0000       1.064263        28.9601 
  35   0.0000       1.268824        34.5265 
  36   0.0000       1.281278        34.8654 
  37   0.0000       1.346323        36.6353 
  38   0.0000       1.355596        36.8877 
  39   0.0000       1.389721        37.8162 
  40   0.0000       1.456534        39.6343 
  41   0.0000       1.494847        40.6768 
  42   0.0000       1.795193        48.8497 
  43   0.0000       1.807630        49.1881 
  44   0.0000       1.908342        51.9286 
  45   0.0000       1.945578        52.9419 
  46   0.0000       2.161156        58.8080 
  47   0.0000       2.176638        59.2293 
  48   0.0000       2.336313        63.5743 
  49   0.0000       2.341757        63.7225 
  50   0.0000       2.361462        64.2587 
  51   0.0000       2.441735        66.4430 
  52   0.0000       2.484689        67.6118 
  53   0.0000       2.525968        68.7351 
  54   0.0000       2.558444        69.6188 
  55   0.0000       2.588824        70.4455 
  56   0.0000       2.785308        75.7921 
  57   0.0000       3.016706        82.0887 
  58   0.0000       3.038475        82.6811 
  59   0.0000       3.095326        84.2281 
  60   0.0000       3.138471        85.4021 
  61   0.0000       3.567518        97.0771 
  62   0.0000       3.722921       101.3058 
  63   0.0000       3.732417       101.5642 
  64   0.0000       3.758593       102.2765 
  65   0.0000       3.920719       106.6882 
  66   0.0000       3.953959       107.5927 
  67   0.0000       4.033970       109.7699 
  68   0.0000       4.060829       110.5008 
  69   0.0000       4.206914       114.4759 
  70   0.0000       4.428813       120.5141 
  71   0.0000       4.513460       122.8175 
  72   0.0000       4.576291       124.5272 
  73   0.0000       4.771521       129.8397 
  74   0.0000       5.107875       138.9923 
  75   0.0000       5.142817       139.9432 
  76   0.0000       5.527220       150.4033 
  77   0.0000       5.687127       154.7546 
  78   0.0000       5.792749       157.6287 
  79   0.0000       5.872844       159.8082 
  80   0.0000       6.224112       169.3667 
  81   0.0000       6.322635       172.0476 
  82   0.0000       6.538912       177.9328 
  83   0.0000       6.845093       186.2645 
  84   0.0000       6.848766       186.3644 
  85   0.0000       6.920297       188.3109 
  86   0.0000       7.030120       191.2993 
  87   0.0000       7.056852       192.0267 
  88   0.0000       7.075834       192.5432 
  89   0.0000       7.109006       193.4459 
  90   0.0000       7.209406       196.1779 
  91   0.0000       7.420458       201.9209 
  92   0.0000       7.455814       202.8830 
  93   0.0000       7.532433       204.9679 
  94   0.0000       7.596089       206.7001 
  95   0.0000       7.630819       207.6451 
  96   0.0000       7.642748       207.9697 
  97   0.0000       7.777834       211.6456 
  98   0.0000       7.837628       213.2727 
  99   0.0000       8.100891       220.4364 
 100   0.0000       8.239151       224.1987 
 101   0.0000       8.351253       227.2491 
 102   0.0000       8.494426       231.1451 
 103   0.0000       8.501635       231.3413 
 104   0.0000       8.717251       237.2084 
 105   0.0000       8.840926       240.5738 
 106   0.0000       9.453518       257.2433 
 107   0.0000       9.536491       259.5011 
 108   0.0000       9.849305       268.0132 
 109   0.0000       9.966037       271.1896 
 110   0.0000      10.266818       279.3743 
 111   0.0000      10.309577       280.5379 
 112   0.0000      10.566954       287.5414 
 113   0.0000      10.710860       291.4573 
 114   0.0000      10.716949       291.6230 
 115   0.0000      10.724796       291.8365 
 116   0.0000      10.862124       295.5734 
 117   0.0000      11.177801       304.1634 
 118   0.0000      11.248461       306.0862 
 119   0.0000      11.396850       310.1241 
 120   0.0000      11.451251       311.6044 
 121   0.0000      11.469448       312.0996 
 122   0.0000      12.395123       337.2884 
 123   0.0000      12.727721       346.3389 
 124   0.0000      13.066301       355.5521 
 125   0.0000      13.108004       356.6869 
 126   0.0000      13.494447       367.2026 
 127   0.0000      13.643743       371.2651 
 128   0.0000      15.633070       425.3975 
 129   0.0000      15.993169       435.1963 
 130   0.0000      38.930741      1059.3593 
 131   0.0000     147.433248      4011.8626 

                    ********************************
                    * MULLIKEN POPULATION ANALYSIS *
                    ********************************

-----------------------
MULLIKEN ATOMIC CHARGES
-----------------------
   0 O :    0.295695
   1 H :   -0.147848
   2 H :   -0.147847
Sum of atomic charges:   -0.0000000

--------------------------------
MULLIKEN REDUCED ORBITAL CHARGES
--------------------------------
  0 O s       :     3.928057  s :     3.928057
      pz      :     1.139713  p :     3.811623
      px      :     1.827659
      py      :     0.844251
      dz2     :     0.000477  d :    -0.030546
      dxz     :     0.000624
      dyz     :    -0.024017
      dx2y2   :    -0.007630
      dxy     :     0.000000
      f0      :    -0.000404  f :    -0.004401
      f+1     :    -0.000019
      f-1     :    -0.000319
      f+2     :    -0.002538
      f-2     :    -0.000000
      f+3     :    -0.000164
      f-3     :    -0.000957
      g0      :    -0.000063  g :    -0.000429
      g+1     :    -0.000000
      g-1     :    -0.000031
      g+2     :    -0.000137
      g-2     :    -0.000000
      g+3     :    -0.000030
      g-3     :    -0.000153
      g+4     :    -0.000014
      g-4     :    -0.000000
  1 H s       :     1.010495  s :     1.010495
      pz      :     0.026597  p :     0.111007
      px      :     0.069744
      py      :     0.014665
      dz2     :     0.005539  d :     0.022678
      dxz     :     0.004793
      dyz     :    -0.000333
      dx2y2   :     0.003426
      dxy     :     0.009252
      f0      :     0.000218  f :     0.003668
      f+1     :     0.000109
      f-1     :     0.001070
      f+2     :    -0.000006
      f-2     :     0.001224
      f+3     :     0.000843
      f-3     :     0.000209
  2 H s       :     1.010494  s :     1.010494
      pz      :     0.026597  p :     0.111007
      px      :     0.069744
      py      :     0.014665
      dz2     :     0.005539  d :     0.022678
      dxz     :     0.004793
      dyz     :    -0.000333
      dx2y2   :     0.003426
      dxy     :     0.009252
      f0      :     0.000218  f :     0.003668
      f+1     :     0.000109
      f-1     :     0.001070
      f+2     :    -0.000006
      f-2     :     0.001224
      f+3     :     0.000843
      f-3     :     0.000209


                     *******************************
                     * LOEWDIN POPULATION ANALYSIS *
                     *******************************

----------------------
LOEWDIN ATOMIC CHARGES
----------------------
   0 O :    0.769705
   1 H :   -0.384852
   2 H :   -0.384852

-------------------------------
LOEWDIN REDUCED ORBITAL CHARGES
-------------------------------
  0 O s       :     3.155578  s :     3.155578
      pz      :     1.325349  p :     4.000769
      px      :     1.483200
      py      :     1.192220
      dz2     :     0.001333  d :     0.063496
      dxz     :     0.001802
      dyz     :     0.040708
      dx2y2   :     0.019653
      dxy     :     0.000000
      f0      :     0.001359  f :     0.009975
      f+1     :     0.000080
      f-1     :     0.003712
      f+2     :     0.003320
      f-2     :     0.000000
      f+3     :     0.001023
      f-3     :     0.000480
      g0      :     0.000026  g :     0.000477
      g+1     :     0.000003
      g-1     :     0.000057
      g+2     :     0.000015
      g-2     :     0.000000
      g+3     :     0.000218
      g-3     :     0.000076
      g+4     :     0.000080
      g-4     :    -0.000000
  1 H s       :     0.605642  s :     0.605642
      pz      :     0.190948  p :     0.533008
      px      :     0.172162
      py      :     0.169898
      dz2     :     0.039924  d :     0.204203
      dxz     :     0.025639
      dyz     :     0.064029
      dx2y2   :     0.031712
      dxy     :     0.042899
      f0      :     0.002811  f :     0.042000
      f+1     :     0.000821
      f-1     :     0.012654
      f+2     :     0.006992
      f-2     :     0.009618
      f+3     :     0.005697
      f-3     :     0.003406
  2 H s       :     0.605642  s :     0.605642
      pz      :     0.190948  p :     0.533008
      px      :     0.172162
      py      :     0.169898
      dz2     :     0.039924  d :     0.204203
      dxz     :     0.025639
      dyz     :     0.064029
      dx2y2   :     0.031712
      dxy     :     0.042899
      f0      :     0.002811  f :     0.042000
      f+1     :     0.000821
      f-1     :     0.012654
      f+2     :     0.006992
      f-2     :     0.009618
      f+3     :     0.005697
      f-3     :     0.003406


                      *****************************
                      * MAYER POPULATION ANALYSIS *
                      *****************************

  NA   - Mulliken gross atomic population
  ZA   - Total nuclear charge
  QA   - Mulliken gross atomic charge
  VA   - Mayer's total valence
  BVA  - Mayer's bonded valence
  FA   - Mayer's free valence

  ATOM       NA         ZA         QA         VA         BVA        FA
  0 O      7.7043     8.0000     0.2957     2.1743     2.1743    -0.0000
  1 H      1.1478     1.0000    -0.1478     1.1445     1.1445    -0.0000
  2 H      1.1478     1.0000    -0.1478     1.1445     1.1445    -0.0000

  Mayer bond orders larger than 0.100000
B(  0-O ,  1-H ) :   1.0872 B(  0-O ,  2-H ) :   1.0872 

-------
TIMINGS
-------

Total SCF time: 0 days 0 hours 0 min 4 sec 

Total time                  ....       4.439 sec
Sum of individual times     ....       4.222 sec  ( 95.1%)

Fock matrix formation       ....       3.524 sec  ( 79.4%)
  XC integration            ....       0.303 sec  (  8.6% of F)
    Basis function eval.    ....       0.051 sec  ( 16.8% of XC)
    Density eval.           ....       0.038 sec  ( 12.7% of XC)
    XC-Functional eval.     ....       0.014 sec  (  4.6% of XC)
    XC-Potential eval.      ....       0.090 sec  ( 29.7% of XC)
Diagonalization             ....       0.017 sec  (  0.4%)
Density matrix formation    ....       0.005 sec  (  0.1%)
Population analysis         ....       0.002 sec  (  0.0%)
Initial guess               ....       0.083 sec  (  1.9%)
Orbital Transformation      ....       0.000 sec  (  0.0%)
Orbital Orthonormalization  ....       0.000 sec  (  0.0%)
DIIS solution               ....       0.006 sec  (  0.1%)
SOSCF solution              ....       0.007 sec  (  0.2%)
Grid generation             ....       0.578 sec  ( 13.0%)

-------------------------   --------------------
FINAL SINGLE POINT ENERGY       -89.518591565423
-------------------------   --------------------


                            ***************************************
                            *     ORCA property calculations      *
                            ***************************************

                                    ---------------------
                                    Active property flags
                                    ---------------------
   (+) Dipole Moment


------------------------------------------------------------------------------
                       ORCA ELECTRIC PROPERTIES CALCULATION
------------------------------------------------------------------------------

Dipole Moment Calculation                       ... on
Quadrupole Moment Calculation                   ... off
Polarizability Calculation                      ... off
GBWName                                         ... H2O_14_.gbw
Electron density file                           ... H2O_14_.scfp
The origin for moment calculation is the CENTER OF MASS  = ( 0.000000,  0.000000  0.097636)

-------------
DIPOLE MOMENT
-------------
                                X             Y             Z
Electronic contribution:      0.00000       0.00000       0.51929
Nuclear contribution   :      0.00000       0.00000      -0.97636
                        -----------------------------------------
Total Dipole Moment    :      0.00000       0.00000      -0.45707
                        -----------------------------------------
Magnitude (a.u.)       :      0.45707
Magnitude (Debye)      :      1.16178



--------------------
Rotational spectrum 
--------------------
 
Rotational constants in cm-1:    27.372330    14.584286     9.514730 
Rotational constants in MHz : 820601.811463 437225.885101 285244.437146 

 Dipole components along the rotational axes: 
x,y,z [a.u.] :     0.000000    -0.457072     0.000000 
x,y,z [Debye]:     0.000000    -1.161784     0.000000 

 

Timings for individual modules:

Sum of individual times         ...        5.605 sec (=   0.093 min)
GTO integral calculation        ...        0.482 sec (=   0.008 min)   8.6 %
Relativistic integrals          ...        0.435 sec (=   0.007 min)   7.8 %
SCF iterations                  ...        4.688 sec (=   0.078 min)  83.6 %
                             ****ORCA TERMINATED NORMALLY****
TOTAL RUN TIME: 0 days 0 hours 0 minutes 5 seconds 926 msec
