
                                 *****************
                                 * O   R   C   A *
                                 *****************

           --- An Ab Initio, DFT and Semiempirical electronic structure package ---

                  #######################################################
                  #                        -***-                        #
                  #          Department of theory and spectroscopy      #
                  #               Directorship: Frank Neese             #
                  #        Max Planck Institute fuer Kohlenforschung    #
                  #                Kaiser Wilhelm Platz 1               #
                  #                 D-45470 Muelheim/Ruhr               #
                  #                      Germany                        #
                  #                                                     #
                  #                  All rights reserved                #
                  #                        -***-                        #
                  #######################################################


                         Program Version 4.2.1 -  RELEASE  -


 With contributions from (in alphabetic order):
   Daniel Aravena         : Magnetic Suceptibility
   Michael Atanasov       : Ab Initio Ligand Field Theory (pilot matlab implementation)
   Alexander A. Auer      : GIAO ZORA, VPT2
   Ute Becker             : Parallelization
   Giovanni Bistoni       : ED, misc. LED, open-shell LED, HFLD
   Martin Brehm           : Molecular dynamics
   Dmytro Bykov           : SCF Hessian
   Vijay G. Chilkuri      : MRCI spin determinant printing, contributions to CSF-ICE
   Dipayan Datta          : RHF DLPNO-CCSD density
   Achintya Kumar Dutta   : EOM-CC, STEOM-CC
   Dmitry Ganyushin       : Spin-Orbit,Spin-Spin,Magnetic field MRCI
   Miquel Garcia          : C-PCM Hessian, Gaussian charge scheme
   Yang Guo               : DLPNO-NEVPT2, CIM, IAO-localization
   Andreas Hansen         : Spin unrestricted coupled pair/coupled cluster methods
   Benjamin Helmich-Paris : CASSCF linear response (MC-RPA)
   Lee Huntington         : MR-EOM, pCC
   Robert Izsak           : Overlap fitted RIJCOSX, COSX-SCS-MP3, EOM
   Christian Kollmar      : KDIIS, OOCD, Brueckner-CCSD(T), CCSD density
   Simone Kossmann        : Meta GGA functionals, TD-DFT gradient, OOMP2, MP2 Hessian
   Martin Krupicka        : AUTO-CI
   Lucas Lang             : DCDCAS
   Dagmar Lenk            : GEPOL surface, SMD
   Dimitrios Liakos       : Extrapolation schemes; Compound Job, initial MDCI parallelization
   Dimitrios Manganas     : Further ROCIS development; embedding schemes
   Dimitrios Pantazis     : SARC Basis sets
   Taras Petrenko         : DFT Hessian,TD-DFT gradient, ASA, ECA, R-Raman, ABS, FL, XAS/XES, NRVS
   Peter Pinski           : DLPNO-MP2, DLPNO-MP2 Gradient
   Christoph Reimann      : Effective Core Potentials
   Marius Retegan         : Local ZFS, SOC
   Christoph Riplinger    : Optimizer, TS searches, QM/MM, DLPNO-CCSD(T), (RO)-DLPNO pert. Triples
   Tobias Risthaus        : Range-separated hybrids, TD-DFT gradient, RPA, STAB
   Michael Roemelt        : Original ROCIS implementation
   Masaaki Saitow         : Open-shell DLPNO-CCSD energy and density
   Barbara Sandhoefer     : DKH picture change effects
   Avijit Sen             : IP-ROCIS
   Kantharuban Sivalingam : CASSCF convergence, NEVPT2, FIC-MRCI
   Bernardo de Souza      : ESD, SOC TD-DFT
   Georgi Stoychev        : AutoAux, RI-MP2 NMR
   Willem Van den Heuvel  : Paramagnetic NMR
   Boris Wezisla          : Elementary symmetry handling
   Frank Wennmohs         : Technical directorship


 We gratefully acknowledge several colleagues who have allowed us to
 interface, adapt or use parts of their codes:
   Stefan Grimme, W. Hujo, H. Kruse,             : VdW corrections, initial TS optimization,
                  C. Bannwarth                     DFT functionals, gCP, sTDA/sTD-DF
   Ed Valeev, F. Pavosevic, A. Kumar             : LibInt (2-el integral package), F12 methods
   Garnet Chan, S. Sharma, J. Yang, R. Olivares  : DMRG
   Ulf Ekstrom                                   : XCFun DFT Library
   Mihaly Kallay                                 : mrcc  (arbitrary order and MRCC methods)
   Andreas Klamt, Michael Diedenhofen            : otool_cosmo (COSMO solvation model)
   Jiri Pittner, Ondrej Demel                    : Mk-CCSD
   Frank Weinhold                                : gennbo (NPA and NBO analysis)
   Christopher J. Cramer and Donald G. Truhlar   : smd solvation model
   Lars Goerigk                                  : TD-DFT with DH, B97 family of functionals
   V. Asgeirsson, H. Jonsson                     : NEB implementation
   FAccTs GmbH                                   : IRC, NEB, NEB-TS, Multilevel, MM, QM/MM, CI optimization
   S Lehtola, MJT Oliveira, MAL Marques          : LibXC Library


 Your calculation uses the libint2 library for the computation of 2-el integrals
 For citations please refer to: http://libint.valeyev.net

 Your ORCA version has been built with support for libXC version: 4.2.3
 For citations please refer to: https://tddft.org/programs/libxc/

 This ORCA versions uses:
   CBLAS   interface :  Fast vector & matrix operations
   LAPACKE interface :  Fast linear algebra routines
   SCALAPACK package :  Parallel linear algebra routines




***************************************
The coordinates will be read from file: ../xyzfiles/He.xyz
***************************************


----- Orbital basis set information -----
Your calculation utilizes the basis: def2-QZVPPD
   F. Weigend and R. Ahlrichs, Phys. Chem. Chem. Phys. 7, 3297 (2005).
   D. Rappoport and F. Furche, J. Chem. Phys. 133 134105 (2010).

================================================================================
                                        WARNINGS
                       Please study these warnings very carefully!
================================================================================


INFO   : the flag for use of LIBINT has been found!

================================================================================
                                       INPUT FILE
================================================================================
NAME = He_137036_.inp
|  1> 
|  2> ! pbe def2-qzvppd nori grid5 finalgrid6 tightscf
|  3> %pal nprocs 18 end
|  4> 
|  5> %rel
|  6>   method zora
|  7>   modelpot 1, 0, 0, 0
|  8>   c 137035.999084
|  9> end
| 10> 
| 11> *xyzfile 0 1 ../xyzfiles/He.xyz
| 12> 
| 13>                          ****END OF INPUT****
================================================================================

                       ****************************
                       * Single Point Calculation *
                       ****************************

---------------------------------
CARTESIAN COORDINATES (ANGSTROEM)
---------------------------------
  He     0.000000    0.000000    0.000000

----------------------------
CARTESIAN COORDINATES (A.U.)
----------------------------
  NO LB      ZA    FRAG     MASS         X           Y           Z
   0 He    2.0000    0     4.003    0.000000    0.000000    0.000000

--------------------------------
INTERNAL COORDINATES (ANGSTROEM)
--------------------------------
 He     0   0   0     0.000000000000     0.00000000     0.00000000

---------------------------
INTERNAL COORDINATES (A.U.)
---------------------------
 He     0   0   0     0.000000000000     0.00000000     0.00000000

---------------------
BASIS SET INFORMATION
---------------------
There are 1 groups of distinct atoms

 Group   1 Type He  : 8s4p2d1f contracted to 4s4p2d1f pattern {5111/1111/11/1}

Atom   0He   basis set group =>   1


           ************************************************************
           *        Program running with 18 parallel MPI-processes    *
           *              working on a common directory               *
           ************************************************************
------------------------------------------------------------------------------
                           ORCA GTO INTEGRAL CALCULATION
------------------------------------------------------------------------------

                         BASIS SET STATISTICS AND STARTUP INFO

 # of primitive gaussian shells          ...   15
 # of primitive gaussian functions       ...   37
 # of contracted shells                  ...   11
 # of contracted basis functions         ...   33
 Highest angular momentum                ...    3
 Maximum contraction depth               ...    5
 Integral package used                   ... LIBINT
 Integral threshhold            Thresh   ...  2.500e-11
 Primitive cut-off              TCut     ...  2.500e-12


------------------------------ INTEGRAL EVALUATION ----------------------------


 * One electron integrals 
 Pre-screening matrix                    ... done
 Shell pair data                         ... done (   0.000 sec)



           ************************************************************
           *        Program running with 18 parallel MPI-processes    *
           *              working on a common directory               *
           ************************************************************
------------------------------------------------------------------------------
                          ORCA RELATIVISTIC HAMILTONIAN
------------------------------------------------------------------------------

Relativistic Method            ... ZORA(MP)
Treatment of potential         ... Van Wuellen
Nucleus model                  ... Point Nucleus
Speed of light used            ... 137035.99908400001004


            *************************************************
            *         ZERO ORDER REGULAR APPROXIMATION      *
            *                     ZORA(MP)                  *
            *            Programmed by FN according to      *
            *                   C. van Wuellen              *
            *       J. Chem. Phys. (1998) vol 109, 392-399  *
            *************************************************

Terms included in model potential: +V(e,N)
Basis function cutoff value   ... 1.000000e-11
Loading the fitted atomic densities  (DKH4)  ... done
Calculating the cutoffs                      ... done
Number of fit functions                      ... 6
Setting up the integration grid ... done


           ************************************************************
           *        Program running with 18 parallel MPI-processes    *
           *              working on a common directory               *
           ************************************************************
-------------------------------------------------------------------------------
                                 ORCA SCF
-------------------------------------------------------------------------------

------------
SCF SETTINGS
------------
Hamiltonian:
 Density Functional     Method          .... DFT(GTOs)
 Exchange Functional    Exchange        .... PBE
   PBE kappa parameter   XKappa         ....  0.804000
   PBE mue parameter    XMuePBE         ....  0.219520
 Correlation Functional Correlation     .... PBE
   PBE beta parameter  CBetaPBE         ....  0.066725
 LDA part of GGA corr.  LDAOpt          .... PW91-LDA
 Gradients option       PostSCFGGA      .... off
   Density functional embedding theory  .... OFF
   NL short-range parameter             ....  6.400000

Relativistic Settings:
 Scalar relativistic method             .... ZORA
 Speed of light used       Velit        ....       137035.999
Orbital energies will be scaled


General Settings:
 Integral files         IntName         .... He_137036_
 Hartree-Fock type      HFTyp           .... RHF
 Total Charge           Charge          ....    0
 Multiplicity           Mult            ....    1
 Number of Electrons    NEL             ....    2
 Basis Dimension        Dim             ....   33
 Nuclear Repulsion      ENuc            ....      0.0000000000 Eh

Convergence Acceleration:
 DIIS                   CNVDIIS         .... on
   Start iteration      DIISMaxIt       ....    12
   Startup error        DIISStart       ....  0.200000
   # of expansion vecs  DIISMaxEq       ....     5
   Bias factor          DIISBfac        ....   1.050
   Max. coefficient     DIISMaxC        ....  10.000
 Newton-Raphson         CNVNR           .... off
 SOSCF                  CNVSOSCF        .... on
   Start iteration      SOSCFMaxIt      ....   150
   Startup grad/error   SOSCFStart      ....  0.003300
 Level Shifting         CNVShift        .... on
   Level shift para.    LevelShift      ....    0.2500
   Turn off err/grad.   ShiftErr        ....    0.0010
 Zerner damping         CNVZerner       .... off
 Static damping         CNVDamp         .... on
   Fraction old density DampFac         ....    0.7000
   Max. Damping (<1)    DampMax         ....    0.9800
   Min. Damping (>=0)   DampMin         ....    0.0000
   Turn off err/grad.   DampErr         ....    0.1000
 Fernandez-Rico         CNVRico         .... off

SCF Procedure:
 Maximum # iterations   MaxIter         ....   125
 SCF integral mode      SCFMode         .... Direct
   Integral package                     .... LIBINT
 Reset frequency        DirectResetFreq ....    20
 Integral Threshold     Thresh          ....  2.500e-11 Eh
 Primitive CutOff       TCut            ....  2.500e-12 Eh

Convergence Tolerance:
 Convergence Check Mode ConvCheckMode   .... Total+1el-Energy
 Convergence forced     ConvForced      .... 0
 Energy Change          TolE            ....  1.000e-08 Eh
 1-El. energy change                    ....  1.000e-05 Eh
 Orbital Gradient       TolG            ....  1.000e-05
 Orbital Rotation angle TolX            ....  1.000e-05
 DIIS Error             TolErr          ....  5.000e-07


Diagonalization of the overlap matrix:
Smallest eigenvalue                        ... 3.475e-02
Time for diagonalization                   ...    0.001 sec
Threshold for overlap eigenvalues          ... 1.000e-08
Number of eigenvalues below threshold      ... 0
Time for construction of square roots      ...    0.001 sec
Total time needed                          ...    0.002 sec

-------------------
DFT GRID GENERATION
-------------------

General Integration Accuracy     IntAcc      ...  5.010
Radial Grid Type                 RadialGrid  ... Gauss-Chebyshev
Angular Grid (max. acc.)         AngularGrid ... Lebedev-434
Angular grid pruning method      GridPruning ... 3 (G Style)
Weight generation scheme         WeightScheme... Becke
Basis function cutoff            BFCut       ...    1.0000e-11
Integration weight cutoff        WCut        ...    1.0000e-14
Grids for H and He will be reduced by one unit

# of grid points (after initial pruning)     ...   6764 (   0.0 sec)
# of grid points (after weights+screening)   ...   6764 (   0.0 sec)
Grid point division into batches done        ...    0.0 sec
Reduced shell lists constructed in    0.0 sec

Total number of grid points                  ...     6764
Total number of batches                      ...      106
Average number of points per batch           ...       63
Average number of grid points per atom       ...     6764
Average number of shells per batch           ...     1.71 (15.58%)
Average number of basis functions per batch  ...     3.43 (10.39%)
Average number of large shells per batch     ...     0.86 (50.00%)
Average number of large basis fcns per batch ...     2.57 (75.00%)
Maximum spatial batch extension              ...  15.22, 15.22, 15.22 au
Average spatial batch extension              ...   0.77,  0.77,  0.77 au

Time for grid setup =    0.055 sec

------------------------------
INITIAL GUESS: MODEL POTENTIAL
------------------------------
Loading ZORA relativistic densities                ... done
Calculating cut-offs                               ... done
Setting up the integral package                    ... done
Initializing the effective Hamiltonian             ... done
Starting the Coulomb interaction                   ... done (   0.0 sec)
Reading the grid                                   ... done
Mapping shells                                     ... done
Starting the XC term evaluation                    ... done (   0.0 sec)
  promolecular density results
     # of electrons  =      1.999920375
     EX              =     -1.013776107
     EC              =     -0.042081621
     EX+EC           =     -1.055857729
Transforming the Hamiltonian                       ... done (   0.0 sec)
Diagonalizing the Hamiltonian                      ... done (   0.0 sec)
Back transforming the eigenvectors                 ... done (   0.0 sec)
Now organizing SCF variables                       ... done
                      ------------------
                      INITIAL GUESS DONE (   0.1 sec)
                      ------------------
--------------
SCF ITERATIONS
--------------
ITER       Energy         Delta-E        Max-DP      RMS-DP      [F,P]     Damp
               ***  Starting incremental Fock matrix formation  ***
  0     -2.8927923136   0.000000000000 0.00094475  0.00005263  0.0116554 0.7000
                      *** Initiating the SOSCF procedure ***
                      *** Re-Reading the Fockian *** 
                      *** Removing any level shift *** 
ITER      Energy       Delta-E        Grad      Rot      Max-DP    RMS-DP
  1     -2.89280446  -0.0000121482  0.000393  0.000393  0.002766  0.000146
               *** Restarting incremental Fock matrix formation ***
  2     -2.89282234  -0.0000178808  0.001147  0.001055  0.001125  0.000060
  3     -2.89282408  -0.0000017415  0.000470  0.000332  0.000369  0.000019
                  ***Gradient check signals convergence***
              ***Rediagonalizing the Fockian in SOSCF/NRSCF***

               *****************************************************
               *                     SUCCESS                       *
               *           SCF CONVERGED AFTER   4 CYCLES          *
               *****************************************************

Setting up the final grid:

General Integration Accuracy     IntAcc      ...  5.340
Radial Grid Type                 RadialGrid  ... Gauss-Chebyshev
Angular Grid (max. acc.)         AngularGrid ... Lebedev-590
Angular grid pruning method      GridPruning ... 3 (G Style)
Weight generation scheme         WeightScheme... Becke
Basis function cutoff            BFCut       ...    1.0000e-11
Integration weight cutoff        WCut        ...    1.0000e-14
Grids for H and He will be reduced by one unit

# of grid points (after initial pruning)     ...  11406 (   0.0 sec)
# of grid points (after weights+screening)   ...  11406 (   0.0 sec)
Grid point division into batches done        ...    0.1 sec
Reduced shell lists constructed in    0.1 sec

Total number of grid points                  ...    11406
Total number of batches                      ...      179
Average number of points per batch           ...       63
Average number of grid points per atom       ...    11406
Average number of shells per batch           ...     0.00 ( 0.00%)
Average number of basis functions per batch  ...     0.00 ( 0.00%)
Average number of large shells per batch     ...     0.00 ( -nan%)
Average number of large basis fcns per batch ...     0.00 ( -nan%)
Maximum spatial batch extension              ...  16.29, 16.29, 16.29 au
Average spatial batch extension              ...   0.81,  0.81,  0.81 au

Final grid set up in    0.1 sec
Final integration                            ... done (   0.0 sec)
Change in XC energy                          ...    -0.000000024
Integrated number of electrons               ...     1.999999999
Previous integrated no of electrons          ...     2.000000002

----------------
TOTAL SCF ENERGY
----------------

Total Energy       :           -2.89282452 Eh             -78.71776 eV

Components:
Nuclear Repulsion  :            0.00000000 Eh               0.00000 eV
Electronic Energy  :           -2.89282452 Eh             -78.71776 eV
One Electron Energy:           -3.87408304 Eh            -105.41916 eV
Two Electron Energy:            0.98125853 Eh              26.70140 eV

Virial components:
Potential Energy   :           -5.74925320 Eh            -156.44513 eV
Kinetic Energy     :            2.85642869 Eh              77.72738 eV
Virial Ratio       :            2.01274172


DFT components:
N(Alpha)           :        0.999999999640 electrons
N(Beta)            :        0.999999999640 electrons
N(Total)           :        1.999999999281 electrons
E(X)               :       -1.005493598617 Eh       
E(C)               :       -0.041085659388 Eh       
E(XC)              :       -1.046579258005 Eh       
DFET-embed. en.    :        0.000000000000 Eh       

---------------
SCF CONVERGENCE
---------------

  Last Energy change         ...   -4.0819e-07  Tolerance :   1.0000e-08
  Last MAX-Density change    ...    2.5802e-07  Tolerance :   1.0000e-07
  Last RMS-Density change    ...    1.0871e-08  Tolerance :   5.0000e-09
  Last Orbital Gradient      ...    4.5057e-07  Tolerance :   1.0000e-05
  Last Orbital Rotation      ...    1.2358e-07  Tolerance :   1.0000e-05

             **** THE GBW FILE WAS UPDATED (He_137036_.gbw) ****
             **** DENSITY FILE WAS UPDATED (He_137036_.scfp) ****
             **** ENERGY FILE WAS UPDATED (He_137036_.en.tmp) ****
             **** THE GBW FILE WAS UPDATED (He_137036_.gbw) ****
             **** DENSITY FILE WAS UPDATED (He_137036_.scfp) ****
----------------
ORBITAL ENERGIES
----------------

  NO   OCC          E(Eh)            E(eV) 
   0   2.0000      -0.578741       -15.7483 
   1   0.0000       0.223395         6.0789 
   2   0.0000       0.223395         6.0789 
   3   0.0000       0.223395         6.0789 
   4   0.0000       0.274696         7.4748 
   5   0.0000       1.225828        33.3565 
   6   0.0000       1.225828        33.3565 
   7   0.0000       1.225828        33.3565 
   8   0.0000       1.892238        51.4904 
   9   0.0000       3.495251        95.1106 
  10   0.0000       3.495251        95.1106 
  11   0.0000       3.495251        95.1106 
  12   0.0000       3.495251        95.1106 
  13   0.0000       3.495251        95.1106 
  14   0.0000       4.650282       126.5406 
  15   0.0000       4.650282       126.5406 
  16   0.0000       4.650282       126.5406 
  17   0.0000       9.417337       256.2588 
  18   0.0000      11.024830       300.0009 
  19   0.0000      11.024830       300.0009 
  20   0.0000      11.024830       300.0009 
  21   0.0000      11.024830       300.0009 
  22   0.0000      11.024830       300.0009 
  23   0.0000      11.024830       300.0009 
  24   0.0000      11.024830       300.0009 
  25   0.0000      15.458301       420.6418 
  26   0.0000      15.458301       420.6418 
  27   0.0000      15.458301       420.6418 
  28   0.0000      15.458301       420.6418 
  29   0.0000      15.458301       420.6418 
  30   0.0000      17.245736       469.2803 
  31   0.0000      17.245736       469.2803 
  32   0.0000      17.245736       469.2803 

                    ********************************
                    * MULLIKEN POPULATION ANALYSIS *
                    ********************************

-----------------------
MULLIKEN ATOMIC CHARGES
-----------------------
   0 He:    0.000000
Sum of atomic charges:    0.0000000

--------------------------------
MULLIKEN REDUCED ORBITAL CHARGES
--------------------------------
  0 Hes       :     2.000000  s :     2.000000
      pz      :     0.000000  p :     0.000000
      px      :     0.000000
      py      :     0.000000
      dz2     :     0.000000  d :     0.000000
      dxz     :     0.000000
      dyz     :     0.000000
      dx2y2   :     0.000000
      dxy     :     0.000000
      f0      :     0.000000  f :     0.000000
      f+1     :     0.000000
      f-1     :     0.000000
      f+2     :     0.000000
      f-2     :     0.000000
      f+3     :     0.000000
      f-3     :     0.000000


                     *******************************
                     * LOEWDIN POPULATION ANALYSIS *
                     *******************************

----------------------
LOEWDIN ATOMIC CHARGES
----------------------
   0 He:    0.000000

-------------------------------
LOEWDIN REDUCED ORBITAL CHARGES
-------------------------------
  0 Hes       :     2.000000  s :     2.000000
      pz      :     0.000000  p :     0.000000
      px      :     0.000000
      py      :     0.000000
      dz2     :     0.000000  d :     0.000000
      dxz     :     0.000000
      dyz     :     0.000000
      dx2y2   :     0.000000
      dxy     :     0.000000
      f0      :     0.000000  f :     0.000000
      f+1     :     0.000000
      f-1     :     0.000000
      f+2     :     0.000000
      f-2     :     0.000000
      f+3     :     0.000000
      f-3     :     0.000000


                      *****************************
                      * MAYER POPULATION ANALYSIS *
                      *****************************

  NA   - Mulliken gross atomic population
  ZA   - Total nuclear charge
  QA   - Mulliken gross atomic charge
  VA   - Mayer's total valence
  BVA  - Mayer's bonded valence
  FA   - Mayer's free valence

  ATOM       NA         ZA         QA         VA         BVA        FA
  0 He     2.0000     2.0000     0.0000     0.0000     0.0000     0.0000

  Mayer bond orders larger than 0.100000


--------------------------
ATOM BASIS FOR ELEMENT He
--------------------------
 NewGTO He
 S 8
    1       1144.647080900000         0.000368924817
    2        171.645966670000         0.002852244845
    3         39.066056254000         0.014651299457
    4         11.051401989000         0.057051567603
    5          3.572557447300         0.166353604967
    6          1.242941596200         0.328058642792
    7          0.448076687300         0.387644836761
    8          0.164115791300         0.225734837541
 S 8
    1       1144.647080900000         0.000244589276
    2        171.645966670000         0.001890977430
    3         39.066056254000         0.009713498699
    4         11.051401989000         0.037823971131
    5          3.572557447300         0.110288888040
    6          1.242941596200        -0.008578327573
    7          0.448076687300         1.305873687541
    8          0.164115791300        -1.729647728203
 S 8
    1       1144.647080900000         0.000250173069
    2        171.645966670000         0.001934147045
    3         39.066056254000         0.009935250686
    4         11.051401989000         0.038687464401
    5          3.572557447300         0.112806701735
    6          1.242941596200         1.843087024777
    7          0.448076687300        -3.026911218282
    8          0.164115791300         1.355998679978
 S 8
    1       1144.647080900000         0.002882930257
    2        171.645966670000         0.022288614327
    3         39.066056254000         0.114491279933
    4         11.051401989000         0.445824414156
    5          3.572557447300         1.299955489272
    6          1.242941596200        -2.763520480563
    7          0.448076687300         1.995286385884
    8          0.164115791300        -0.671938476740
 P 4
    1          5.994000000000        -0.003299420561
    2          1.745000000000         0.053784003506
    3          0.560000000000        -0.097965686154
    4          0.162989231200         1.048814927490
 P 4
    1          5.994000000000         0.043850203403
    2          1.745000000000        -0.141452960384
    3          0.560000000000         1.407185605416
    4          0.162989231200        -0.826653399165
 P 4
    1          5.994000000000        -0.101023064735
    2          1.745000000000         1.551668335201
    3          0.560000000000        -1.267974268531
    4          0.162989231200         0.421148431425
 P 4
    1          5.994000000000         1.408578982549
    2          1.745000000000        -1.244508379312
    3          0.560000000000         0.617283958699
    4          0.162989231200        -0.186873874069
 D 2
    1          4.299000000000        -0.102121581070
    2          1.223000000000         1.049504918287
 D 2
    1          4.299000000000         1.167937996369
    2          1.223000000000        -0.522539383371
 F 1
    1          2.680000000000         1.000000000000
 end
  // -----------------------------------------------
  // The basis set
  // -----------------------------------------------
  BAS[ATNO] = new BFNGauss[NSH];
  // Basis function   1 L = s
  InitBFNGauss(BAS[ATNO][  0]);
  BAS[ATNO][  0].l  = 0;
  BAS[ATNO][  0].ng = 8;
  BAS[ATNO][  0].a[  0] =      1144.647080900000;     BAS[ATNO][  0].d[  0] =         0.000368924817;
  BAS[ATNO][  0].a[  1] =       171.645966670000;     BAS[ATNO][  0].d[  1] =         0.002852244845;
  BAS[ATNO][  0].a[  2] =        39.066056254000;     BAS[ATNO][  0].d[  2] =         0.014651299457;
  BAS[ATNO][  0].a[  3] =        11.051401989000;     BAS[ATNO][  0].d[  3] =         0.057051567603;
  BAS[ATNO][  0].a[  4] =         3.572557447300;     BAS[ATNO][  0].d[  4] =         0.166353604967;
  BAS[ATNO][  0].a[  5] =         1.242941596200;     BAS[ATNO][  0].d[  5] =         0.328058642792;
  BAS[ATNO][  0].a[  6] =         0.448076687300;     BAS[ATNO][  0].d[  6] =         0.387644836761;
  BAS[ATNO][  0].a[  7] =         0.164115791300;     BAS[ATNO][  0].d[  7] =         0.225734837541;

  // Basis function   2 L = s
  InitBFNGauss(BAS[ATNO][  1]);
  BAS[ATNO][  1].l  = 0;
  BAS[ATNO][  1].ng = 8;
  BAS[ATNO][  1].a[  0] =      1144.647080900000;     BAS[ATNO][  1].d[  0] =        -0.000244589276;
  BAS[ATNO][  1].a[  1] =       171.645966670000;     BAS[ATNO][  1].d[  1] =        -0.001890977430;
  BAS[ATNO][  1].a[  2] =        39.066056254000;     BAS[ATNO][  1].d[  2] =        -0.009713498699;
  BAS[ATNO][  1].a[  3] =        11.051401989000;     BAS[ATNO][  1].d[  3] =        -0.037823971131;
  BAS[ATNO][  1].a[  4] =         3.572557447300;     BAS[ATNO][  1].d[  4] =        -0.110288888040;
  BAS[ATNO][  1].a[  5] =         1.242941596200;     BAS[ATNO][  1].d[  5] =         0.008578327573;
  BAS[ATNO][  1].a[  6] =         0.448076687300;     BAS[ATNO][  1].d[  6] =        -1.305873687541;
  BAS[ATNO][  1].a[  7] =         0.164115791300;     BAS[ATNO][  1].d[  7] =         1.729647728203;

  // Basis function   3 L = s
  InitBFNGauss(BAS[ATNO][  2]);
  BAS[ATNO][  2].l  = 0;
  BAS[ATNO][  2].ng = 8;
  BAS[ATNO][  2].a[  0] =      1144.647080900000;     BAS[ATNO][  2].d[  0] =        -0.000250173069;
  BAS[ATNO][  2].a[  1] =       171.645966670000;     BAS[ATNO][  2].d[  1] =        -0.001934147045;
  BAS[ATNO][  2].a[  2] =        39.066056254000;     BAS[ATNO][  2].d[  2] =        -0.009935250686;
  BAS[ATNO][  2].a[  3] =        11.051401989000;     BAS[ATNO][  2].d[  3] =        -0.038687464401;
  BAS[ATNO][  2].a[  4] =         3.572557447300;     BAS[ATNO][  2].d[  4] =        -0.112806701735;
  BAS[ATNO][  2].a[  5] =         1.242941596200;     BAS[ATNO][  2].d[  5] =        -1.843087024777;
  BAS[ATNO][  2].a[  6] =         0.448076687300;     BAS[ATNO][  2].d[  6] =         3.026911218282;
  BAS[ATNO][  2].a[  7] =         0.164115791300;     BAS[ATNO][  2].d[  7] =        -1.355998679978;

  // Basis function   4 L = s
  InitBFNGauss(BAS[ATNO][  3]);
  BAS[ATNO][  3].l  = 0;
  BAS[ATNO][  3].ng = 8;
  BAS[ATNO][  3].a[  0] =      1144.647080900000;     BAS[ATNO][  3].d[  0] =        -0.002882930257;
  BAS[ATNO][  3].a[  1] =       171.645966670000;     BAS[ATNO][  3].d[  1] =        -0.022288614327;
  BAS[ATNO][  3].a[  2] =        39.066056254000;     BAS[ATNO][  3].d[  2] =        -0.114491279933;
  BAS[ATNO][  3].a[  3] =        11.051401989000;     BAS[ATNO][  3].d[  3] =        -0.445824414156;
  BAS[ATNO][  3].a[  4] =         3.572557447300;     BAS[ATNO][  3].d[  4] =        -1.299955489272;
  BAS[ATNO][  3].a[  5] =         1.242941596200;     BAS[ATNO][  3].d[  5] =         2.763520480563;
  BAS[ATNO][  3].a[  6] =         0.448076687300;     BAS[ATNO][  3].d[  6] =        -1.995286385884;
  BAS[ATNO][  3].a[  7] =         0.164115791300;     BAS[ATNO][  3].d[  7] =         0.671938476740;

  // Basis function   5 L = p
  InitBFNGauss(BAS[ATNO][  4]);
  BAS[ATNO][  4].l  = 1;
  BAS[ATNO][  4].ng = 4;
  BAS[ATNO][  4].a[  0] =         5.994000000000;     BAS[ATNO][  4].d[  0] =        -0.003299420561;
  BAS[ATNO][  4].a[  1] =         1.745000000000;     BAS[ATNO][  4].d[  1] =         0.053784003506;
  BAS[ATNO][  4].a[  2] =         0.560000000000;     BAS[ATNO][  4].d[  2] =        -0.097965686154;
  BAS[ATNO][  4].a[  3] =         0.162989231200;     BAS[ATNO][  4].d[  3] =         1.048814927490;

  // Basis function   6 L = p
  InitBFNGauss(BAS[ATNO][  5]);
  BAS[ATNO][  5].l  = 1;
  BAS[ATNO][  5].ng = 4;
  BAS[ATNO][  5].a[  0] =         5.994000000000;     BAS[ATNO][  5].d[  0] =         0.043850203403;
  BAS[ATNO][  5].a[  1] =         1.745000000000;     BAS[ATNO][  5].d[  1] =        -0.141452960384;
  BAS[ATNO][  5].a[  2] =         0.560000000000;     BAS[ATNO][  5].d[  2] =         1.407185605416;
  BAS[ATNO][  5].a[  3] =         0.162989231200;     BAS[ATNO][  5].d[  3] =        -0.826653399165;

  // Basis function   7 L = p
  InitBFNGauss(BAS[ATNO][  6]);
  BAS[ATNO][  6].l  = 1;
  BAS[ATNO][  6].ng = 4;
  BAS[ATNO][  6].a[  0] =         5.994000000000;     BAS[ATNO][  6].d[  0] =        -0.101023064735;
  BAS[ATNO][  6].a[  1] =         1.745000000000;     BAS[ATNO][  6].d[  1] =         1.551668335201;
  BAS[ATNO][  6].a[  2] =         0.560000000000;     BAS[ATNO][  6].d[  2] =        -1.267974268531;
  BAS[ATNO][  6].a[  3] =         0.162989231200;     BAS[ATNO][  6].d[  3] =         0.421148431425;

  // Basis function   8 L = p
  InitBFNGauss(BAS[ATNO][  7]);
  BAS[ATNO][  7].l  = 1;
  BAS[ATNO][  7].ng = 4;
  BAS[ATNO][  7].a[  0] =         5.994000000000;     BAS[ATNO][  7].d[  0] =         1.408578982549;
  BAS[ATNO][  7].a[  1] =         1.745000000000;     BAS[ATNO][  7].d[  1] =        -1.244508379312;
  BAS[ATNO][  7].a[  2] =         0.560000000000;     BAS[ATNO][  7].d[  2] =         0.617283958699;
  BAS[ATNO][  7].a[  3] =         0.162989231200;     BAS[ATNO][  7].d[  3] =        -0.186873874069;

  // Basis function   9 L = d
  InitBFNGauss(BAS[ATNO][  8]);
  BAS[ATNO][  8].l  = 2;
  BAS[ATNO][  8].ng = 2;
  BAS[ATNO][  8].a[  0] =         4.299000000000;     BAS[ATNO][  8].d[  0] =        -0.102121581070;
  BAS[ATNO][  8].a[  1] =         1.223000000000;     BAS[ATNO][  8].d[  1] =         1.049504918287;

  // Basis function  10 L = d
  InitBFNGauss(BAS[ATNO][  9]);
  BAS[ATNO][  9].l  = 2;
  BAS[ATNO][  9].ng = 2;
  BAS[ATNO][  9].a[  0] =         4.299000000000;     BAS[ATNO][  9].d[  0] =         1.167937996369;
  BAS[ATNO][  9].a[  1] =         1.223000000000;     BAS[ATNO][  9].d[  1] =        -0.522539383371;

  // Basis function  11 L = f
  InitBFNGauss(BAS[ATNO][ 10]);
  BAS[ATNO][ 10].l  = 3;
  BAS[ATNO][ 10].ng = 1;
  BAS[ATNO][ 10].a[  0] =         2.680000000000;     BAS[ATNO][ 10].d[  0] =         1.000000000000;

-------
TIMINGS
-------

Total SCF time: 0 days 0 hours 0 min 1 sec 

Total time                  ....       1.052 sec
Sum of individual times     ....       0.870 sec  ( 82.7%)

Fock matrix formation       ....       0.593 sec  ( 56.3%)
  XC integration            ....       0.017 sec  (  2.9% of F)
    Basis function eval.    ....       0.001 sec  (  8.3% of XC)
    Density eval.           ....       0.001 sec  (  5.8% of XC)
    XC-Functional eval.     ....       0.001 sec  (  8.4% of XC)
    XC-Potential eval.      ....       0.001 sec  (  4.8% of XC)
Diagonalization             ....       0.000 sec  (  0.0%)
Density matrix formation    ....       0.000 sec  (  0.0%)
Population analysis         ....       0.001 sec  (  0.1%)
Initial guess               ....       0.093 sec  (  8.9%)
Orbital Transformation      ....       0.000 sec  (  0.0%)
Orbital Orthonormalization  ....       0.000 sec  (  0.0%)
DIIS solution               ....       0.000 sec  (  0.0%)
SOSCF solution              ....       0.001 sec  (  0.0%)
Grid generation             ....       0.182 sec  ( 17.3%)

-------------------------   --------------------
FINAL SINGLE POINT ENERGY        -2.892824516287
-------------------------   --------------------


                            ***************************************
                            *     ORCA property calculations      *
                            ***************************************

                                    ---------------------
                                    Active property flags
                                    ---------------------
   (+) Dipole Moment


------------------------------------------------------------------------------
                       ORCA ELECTRIC PROPERTIES CALCULATION
------------------------------------------------------------------------------

Dipole Moment Calculation                       ... on
Quadrupole Moment Calculation                   ... off
Polarizability Calculation                      ... off
GBWName                                         ... He_137036_.gbw
Electron density file                           ... He_137036_.scfp
The origin for moment calculation is the CENTER OF MASS  = ( 0.000000,  0.000000  0.000000)

-------------
DIPOLE MOMENT
-------------
                                X             Y             Z
Electronic contribution:      0.00000      -0.00000       0.00000
Nuclear contribution   :      0.00000       0.00000       0.00000
                        -----------------------------------------
Total Dipole Moment    :      0.00000      -0.00000       0.00000
                        -----------------------------------------
Magnitude (a.u.)       :      0.00000
Magnitude (Debye)      :      0.00000



--------------------
Rotational spectrum 
--------------------
 
Rotational constants in cm-1:     0.000000     0.000000     0.000000 
Rotational constants in MHz :     0.000000     0.000000     0.000000 

 Dipole components along the rotational axes: 
x,y,z [a.u.] :     0.000000    -0.000000     0.000000 
x,y,z [Debye]:     0.000000    -0.000000     0.000000 

 

Timings for individual modules:

Sum of individual times         ...        2.025 sec (=   0.034 min)
GTO integral calculation        ...        0.474 sec (=   0.008 min)  23.4 %
Relativistic integrals          ...        0.260 sec (=   0.004 min)  12.8 %
SCF iterations                  ...        1.292 sec (=   0.022 min)  63.8 %
                             ****ORCA TERMINATED NORMALLY****
TOTAL RUN TIME: 0 days 0 hours 0 minutes 2 seconds 337 msec
