
                                 *****************
                                 * O   R   C   A *
                                 *****************

           --- An Ab Initio, DFT and Semiempirical electronic structure package ---

                  #######################################################
                  #                        -***-                        #
                  #          Department of theory and spectroscopy      #
                  #               Directorship: Frank Neese             #
                  #        Max Planck Institute fuer Kohlenforschung    #
                  #                Kaiser Wilhelm Platz 1               #
                  #                 D-45470 Muelheim/Ruhr               #
                  #                      Germany                        #
                  #                                                     #
                  #                  All rights reserved                #
                  #                        -***-                        #
                  #######################################################


                         Program Version 4.2.1 -  RELEASE  -


 With contributions from (in alphabetic order):
   Daniel Aravena         : Magnetic Suceptibility
   Michael Atanasov       : Ab Initio Ligand Field Theory (pilot matlab implementation)
   Alexander A. Auer      : GIAO ZORA, VPT2
   Ute Becker             : Parallelization
   Giovanni Bistoni       : ED, misc. LED, open-shell LED, HFLD
   Martin Brehm           : Molecular dynamics
   Dmytro Bykov           : SCF Hessian
   Vijay G. Chilkuri      : MRCI spin determinant printing, contributions to CSF-ICE
   Dipayan Datta          : RHF DLPNO-CCSD density
   Achintya Kumar Dutta   : EOM-CC, STEOM-CC
   Dmitry Ganyushin       : Spin-Orbit,Spin-Spin,Magnetic field MRCI
   Miquel Garcia          : C-PCM Hessian, Gaussian charge scheme
   Yang Guo               : DLPNO-NEVPT2, CIM, IAO-localization
   Andreas Hansen         : Spin unrestricted coupled pair/coupled cluster methods
   Benjamin Helmich-Paris : CASSCF linear response (MC-RPA)
   Lee Huntington         : MR-EOM, pCC
   Robert Izsak           : Overlap fitted RIJCOSX, COSX-SCS-MP3, EOM
   Christian Kollmar      : KDIIS, OOCD, Brueckner-CCSD(T), CCSD density
   Simone Kossmann        : Meta GGA functionals, TD-DFT gradient, OOMP2, MP2 Hessian
   Martin Krupicka        : AUTO-CI
   Lucas Lang             : DCDCAS
   Dagmar Lenk            : GEPOL surface, SMD
   Dimitrios Liakos       : Extrapolation schemes; Compound Job, initial MDCI parallelization
   Dimitrios Manganas     : Further ROCIS development; embedding schemes
   Dimitrios Pantazis     : SARC Basis sets
   Taras Petrenko         : DFT Hessian,TD-DFT gradient, ASA, ECA, R-Raman, ABS, FL, XAS/XES, NRVS
   Peter Pinski           : DLPNO-MP2, DLPNO-MP2 Gradient
   Christoph Reimann      : Effective Core Potentials
   Marius Retegan         : Local ZFS, SOC
   Christoph Riplinger    : Optimizer, TS searches, QM/MM, DLPNO-CCSD(T), (RO)-DLPNO pert. Triples
   Tobias Risthaus        : Range-separated hybrids, TD-DFT gradient, RPA, STAB
   Michael Roemelt        : Original ROCIS implementation
   Masaaki Saitow         : Open-shell DLPNO-CCSD energy and density
   Barbara Sandhoefer     : DKH picture change effects
   Avijit Sen             : IP-ROCIS
   Kantharuban Sivalingam : CASSCF convergence, NEVPT2, FIC-MRCI
   Bernardo de Souza      : ESD, SOC TD-DFT
   Georgi Stoychev        : AutoAux, RI-MP2 NMR
   Willem Van den Heuvel  : Paramagnetic NMR
   Boris Wezisla          : Elementary symmetry handling
   Frank Wennmohs         : Technical directorship


 We gratefully acknowledge several colleagues who have allowed us to
 interface, adapt or use parts of their codes:
   Stefan Grimme, W. Hujo, H. Kruse,             : VdW corrections, initial TS optimization,
                  C. Bannwarth                     DFT functionals, gCP, sTDA/sTD-DF
   Ed Valeev, F. Pavosevic, A. Kumar             : LibInt (2-el integral package), F12 methods
   Garnet Chan, S. Sharma, J. Yang, R. Olivares  : DMRG
   Ulf Ekstrom                                   : XCFun DFT Library
   Mihaly Kallay                                 : mrcc  (arbitrary order and MRCC methods)
   Andreas Klamt, Michael Diedenhofen            : otool_cosmo (COSMO solvation model)
   Jiri Pittner, Ondrej Demel                    : Mk-CCSD
   Frank Weinhold                                : gennbo (NPA and NBO analysis)
   Christopher J. Cramer and Donald G. Truhlar   : smd solvation model
   Lars Goerigk                                  : TD-DFT with DH, B97 family of functionals
   V. Asgeirsson, H. Jonsson                     : NEB implementation
   FAccTs GmbH                                   : IRC, NEB, NEB-TS, Multilevel, MM, QM/MM, CI optimization
   S Lehtola, MJT Oliveira, MAL Marques          : LibXC Library


 Your calculation uses the libint2 library for the computation of 2-el integrals
 For citations please refer to: http://libint.valeyev.net

 Your ORCA version has been built with support for libXC version: 4.2.3
 For citations please refer to: https://tddft.org/programs/libxc/

 This ORCA versions uses:
   CBLAS   interface :  Fast vector & matrix operations
   LAPACKE interface :  Fast linear algebra routines
   SCALAPACK package :  Parallel linear algebra routines




***************************************
The coordinates will be read from file: ../xyzfiles/Kr.xyz
***************************************


----- Orbital basis set information -----
Your calculation utilizes the basis: def2-QZVPPD
   F. Weigend and R. Ahlrichs, Phys. Chem. Chem. Phys. 7, 3297 (2005).
   D. Rappoport and F. Furche, J. Chem. Phys. 133 134105 (2010).

================================================================================
                                        WARNINGS
                       Please study these warnings very carefully!
================================================================================


INFO   : the flag for use of LIBINT has been found!

================================================================================
                                       INPUT FILE
================================================================================
NAME = Kr_137_.inp
|  1> 
|  2> ! pbe def2-qzvppd nori grid5 finalgrid6 tightscf
|  3> %pal nprocs 18 end
|  4> 
|  5> %rel
|  6>   method zora
|  7>   modelpot 1, 0, 0, 0
|  8>   c 137.035999084
|  9> end
| 10> 
| 11> *xyzfile 34 1 ../xyzfiles/Kr.xyz
| 12> 
| 13>                          ****END OF INPUT****
================================================================================

                       ****************************
                       * Single Point Calculation *
                       ****************************

---------------------------------
CARTESIAN COORDINATES (ANGSTROEM)
---------------------------------
  Kr     0.000000    0.000000    0.000000

----------------------------
CARTESIAN COORDINATES (A.U.)
----------------------------
  NO LB      ZA    FRAG     MASS         X           Y           Z
   0 Kr   36.0000    0    83.800    0.000000    0.000000    0.000000

--------------------------------
INTERNAL COORDINATES (ANGSTROEM)
--------------------------------
 Kr     0   0   0     0.000000000000     0.00000000     0.00000000

---------------------------
INTERNAL COORDINATES (A.U.)
---------------------------
 Kr     0   0   0     0.000000000000     0.00000000     0.00000000

---------------------
BASIS SET INFORMATION
---------------------
There are 1 groups of distinct atoms

 Group   1 Type Kr  : 25s21p11d4f1g contracted to 12s8p5d4f1g pattern {1141111111111/105111111/71111/1111/1}

Atom   0Kr   basis set group =>   1


           ************************************************************
           *        Program running with 18 parallel MPI-processes    *
           *              working on a common directory               *
           ************************************************************
------------------------------------------------------------------------------
                           ORCA GTO INTEGRAL CALCULATION
------------------------------------------------------------------------------

                         BASIS SET STATISTICS AND STARTUP INFO

 # of primitive gaussian shells          ...   62
 # of primitive gaussian functions       ...  180
 # of contracted shells                  ...   30
 # of contracted basis functions         ...   98
 Highest angular momentum                ...    4
 Maximum contraction depth               ...   11
 Integral package used                   ... LIBINT
 Integral threshhold            Thresh   ...  2.500e-11
 Primitive cut-off              TCut     ...  2.500e-12


------------------------------ INTEGRAL EVALUATION ----------------------------


 * One electron integrals 
 Pre-screening matrix                    ... done
 Shell pair data                         ... done (   0.000 sec)



           ************************************************************
           *        Program running with 18 parallel MPI-processes    *
           *              working on a common directory               *
           ************************************************************
------------------------------------------------------------------------------
                          ORCA RELATIVISTIC HAMILTONIAN
------------------------------------------------------------------------------

Relativistic Method            ... ZORA(MP)
Treatment of potential         ... Van Wuellen
Nucleus model                  ... Point Nucleus
Speed of light used            ... 137.03599908400000


            *************************************************
            *         ZERO ORDER REGULAR APPROXIMATION      *
            *                     ZORA(MP)                  *
            *            Programmed by FN according to      *
            *                   C. van Wuellen              *
            *       J. Chem. Phys. (1998) vol 109, 392-399  *
            *************************************************

Terms included in model potential: +V(e,N)
Basis function cutoff value   ... 1.000000e-11
Loading the fitted atomic densities  (DKH4)  ... done
Calculating the cutoffs                      ... done
Number of fit functions                      ... 27
Setting up the integration grid ... done


           ************************************************************
           *        Program running with 18 parallel MPI-processes    *
           *              working on a common directory               *
           ************************************************************
-------------------------------------------------------------------------------
                                 ORCA SCF
-------------------------------------------------------------------------------

------------
SCF SETTINGS
------------
Hamiltonian:
 Density Functional     Method          .... DFT(GTOs)
 Exchange Functional    Exchange        .... PBE
   PBE kappa parameter   XKappa         ....  0.804000
   PBE mue parameter    XMuePBE         ....  0.219520
 Correlation Functional Correlation     .... PBE
   PBE beta parameter  CBetaPBE         ....  0.066725
 LDA part of GGA corr.  LDAOpt          .... PW91-LDA
 Gradients option       PostSCFGGA      .... off
   Density functional embedding theory  .... OFF
   NL short-range parameter             ....  6.400000

Relativistic Settings:
 Scalar relativistic method             .... ZORA
 Speed of light used       Velit        ....       137.035999
Orbital energies will be scaled


General Settings:
 Integral files         IntName         .... Kr_137_
 Hartree-Fock type      HFTyp           .... RHF
 Total Charge           Charge          ....   34
 Multiplicity           Mult            ....    1
 Number of Electrons    NEL             ....    2
 Basis Dimension        Dim             ....   98
 Nuclear Repulsion      ENuc            ....      0.0000000000 Eh

Convergence Acceleration:
 DIIS                   CNVDIIS         .... on
   Start iteration      DIISMaxIt       ....    12
   Startup error        DIISStart       ....  0.200000
   # of expansion vecs  DIISMaxEq       ....     5
   Bias factor          DIISBfac        ....   1.050
   Max. coefficient     DIISMaxC        ....  10.000
 Newton-Raphson         CNVNR           .... off
 SOSCF                  CNVSOSCF        .... on
   Start iteration      SOSCFMaxIt      ....   150
   Startup grad/error   SOSCFStart      ....  0.003300
 Level Shifting         CNVShift        .... on
   Level shift para.    LevelShift      ....    0.2500
   Turn off err/grad.   ShiftErr        ....    0.0010
 Zerner damping         CNVZerner       .... off
 Static damping         CNVDamp         .... on
   Fraction old density DampFac         ....    0.7000
   Max. Damping (<1)    DampMax         ....    0.9800
   Min. Damping (>=0)   DampMin         ....    0.0000
   Turn off err/grad.   DampErr         ....    0.1000
 Fernandez-Rico         CNVRico         .... off

SCF Procedure:
 Maximum # iterations   MaxIter         ....   125
 SCF integral mode      SCFMode         .... Direct
   Integral package                     .... LIBINT
 Reset frequency        DirectResetFreq ....    20
 Integral Threshold     Thresh          ....  2.500e-11 Eh
 Primitive CutOff       TCut            ....  2.500e-12 Eh

Convergence Tolerance:
 Convergence Check Mode ConvCheckMode   .... Total+1el-Energy
 Convergence forced     ConvForced      .... 0
 Energy Change          TolE            ....  1.000e-08 Eh
 1-El. energy change                    ....  1.000e-05 Eh
 Orbital Gradient       TolG            ....  1.000e-05
 Orbital Rotation angle TolX            ....  1.000e-05
 DIIS Error             TolErr          ....  5.000e-07


Diagonalization of the overlap matrix:
Smallest eigenvalue                        ... 6.740e-04
Time for diagonalization                   ...    0.001 sec
Threshold for overlap eigenvalues          ... 1.000e-08
Number of eigenvalues below threshold      ... 0
Time for construction of square roots      ...    0.001 sec
Total time needed                          ...    0.003 sec

-------------------
DFT GRID GENERATION
-------------------

General Integration Accuracy     IntAcc      ...  5.010
Radial Grid Type                 RadialGrid  ... Gauss-Chebyshev
Angular Grid (max. acc.)         AngularGrid ... Lebedev-434
Angular grid pruning method      GridPruning ... 3 (G Style)
Weight generation scheme         WeightScheme... Becke
Basis function cutoff            BFCut       ...    1.0000e-11
Integration weight cutoff        WCut        ...    1.0000e-14
Grids for H and He will be reduced by one unit

# of grid points (after initial pruning)     ...  16106 (   0.0 sec)
# of grid points (after weights+screening)   ...  16106 (   0.0 sec)
Grid point division into batches done        ...    0.2 sec
Reduced shell lists constructed in    0.2 sec

Total number of grid points                  ...    16106
Total number of batches                      ...      252
Average number of points per batch           ...       63
Average number of grid points per atom       ...    16106
Average number of shells per batch           ...     4.27 (14.22%)
Average number of basis functions per batch  ...    11.73 (11.97%)
Average number of large shells per batch     ...     3.33 (78.12%)
Average number of large basis fcns per batch ...    10.00 (85.23%)
Maximum spatial batch extension              ...  17.34, 17.34, 17.34 au
Average spatial batch extension              ...   0.86,  0.87,  0.87 au

Time for grid setup =    0.242 sec

------------------------------
INITIAL GUESS: MODEL POTENTIAL
------------------------------
Loading ZORA relativistic densities                ... done
Calculating cut-offs                               ... done
Setting up the integral package                    ... done
Initializing the effective Hamiltonian             ... done
Starting the Coulomb interaction                   ... done (   0.0 sec)
Reading the grid                                   ... done
Mapping shells                                     ... done
Starting the XC term evaluation                    ... done (   0.0 sec)
  promolecular density results
     # of electrons  =     36.000000560
     EX              =    -96.183625788
     EC              =     -1.761654744
     EX+EC           =    -97.945280532
Transforming the Hamiltonian                       ... done (   0.0 sec)
Diagonalizing the Hamiltonian                      ... done (   0.0 sec)
Back transforming the eigenvectors                 ... done (   0.0 sec)
Now organizing SCF variables                       ... done
                      ------------------
                      INITIAL GUESS DONE (   0.3 sec)
                      ------------------
--------------
SCF ITERATIONS
--------------
ITER       Energy         Delta-E        Max-DP      RMS-DP      [F,P]     Damp
               ***  Starting incremental Fock matrix formation  ***
  0  -1317.9331475210   0.000000000000 0.00802076  0.00010783  6.1837644 0.7000
  1  -1317.9515697071  -0.018422186095 0.00555193  0.00007489  4.3082024 0.7000
  2  -1317.9643769816  -0.012807274547 0.00384096  0.00005200  3.0009575 0.7000
  3  -1317.9732994390  -0.008922457405 0.00265710  0.00003610  2.0904246 0.7000
  4  -1317.9795245616  -0.006225122581 0.00183802  0.00002506  1.4561904 0.7000
  5  -1317.9838721954  -0.004347633786 0.00127135  0.00001740  1.0144005 0.7000
                      *** Initiating the SOSCF procedure ***
                      *** Re-Reading the Fockian *** 
                      *** Removing any level shift *** 
ITER      Energy       Delta-E        Grad      Rot      Max-DP    RMS-DP
  6  -1317.98691073  -0.0030385348  0.002513  0.002513  0.002931  0.000040
               *** Restarting incremental Fock matrix formation ***
  7  -1317.99398549  -0.0070747580  0.005826  0.000007  0.000082  0.000001
  8  -1317.99398565  -0.0000001667  0.000094  0.000000  0.000001  0.000000
                 **** Energy Check signals convergence ****
              ***Rediagonalizing the Fockian in SOSCF/NRSCF***

               *****************************************************
               *                     SUCCESS                       *
               *           SCF CONVERGED AFTER   9 CYCLES          *
               *****************************************************

Setting up the final grid:

General Integration Accuracy     IntAcc      ...  5.340
Radial Grid Type                 RadialGrid  ... Gauss-Chebyshev
Angular Grid (max. acc.)         AngularGrid ... Lebedev-590
Angular grid pruning method      GridPruning ... 3 (G Style)
Weight generation scheme         WeightScheme... Becke
Basis function cutoff            BFCut       ...    1.0000e-11
Integration weight cutoff        WCut        ...    1.0000e-14
Grids for H and He will be reduced by one unit

# of grid points (after initial pruning)     ...  24180 (   0.0 sec)
# of grid points (after weights+screening)   ...  24180 (   0.0 sec)
Grid point division into batches done        ...    0.4 sec
Reduced shell lists constructed in    0.4 sec

Total number of grid points                  ...    24180
Total number of batches                      ...      378
Average number of points per batch           ...       63
Average number of grid points per atom       ...    24180
Average number of shells per batch           ...     3.95 (13.18%)
Average number of basis functions per batch  ...    11.59 (11.83%)
Average number of large shells per batch     ...     3.00 (75.86%)
Average number of large basis fcns per batch ...     9.00 (77.65%)
Maximum spatial batch extension              ...  17.58, 17.58, 17.58 au
Average spatial batch extension              ...   0.77,  0.77,  0.77 au

Final grid set up in    0.5 sec
Final integration                            ... done (   0.0 sec)
Change in XC energy                          ...    -0.000111025
Integrated number of electrons               ...     1.999999858
Previous integrated no of electrons          ...     1.999997753

----------------
TOTAL SCF ENERGY
----------------

Total Energy       :        -1317.99409668 Eh          -35864.44268 eV

Components:
Nuclear Repulsion  :            0.00000000 Eh               0.00000 eV
Electronic Energy  :        -1317.99409668 Eh          -35864.44268 eV
One Electron Energy:        -1341.66792899 Eh          -36508.64041 eV
Two Electron Energy:           23.67383231 Eh             644.19773 eV

Virial components:
Potential Energy   :        -2678.92258691 Eh          -72897.18961 eV
Kinetic Energy     :         1360.92849023 Eh           37032.74693 eV
Virial Ratio       :            1.96845213


DFT components:
N(Alpha)           :        0.999999928858 electrons
N(Beta)            :        0.999999928858 electrons
N(Total)           :        1.999999857716 electrons
E(X)               :      -22.860244937228 Eh       
E(C)               :       -0.047295970356 Eh       
E(XC)              :      -22.907540907584 Eh       
DFET-embed. en.    :        0.000000000000 Eh       

---------------
SCF CONVERGENCE
---------------

  Last Energy change         ...   -4.2292e-11  Tolerance :   1.0000e-08
  Last MAX-Density change    ...    7.1919e-11  Tolerance :   1.0000e-07
  Last RMS-Density change    ...    1.5554e-12  Tolerance :   5.0000e-09
  Last Orbital Gradient      ...    1.5491e-09  Tolerance :   1.0000e-05
  Last Orbital Rotation      ...    2.4474e-12  Tolerance :   1.0000e-05

================================================================================
                                        WARNING
Number of found core electrons (2) does not match given number of chemical core electrons (18)
================================================================================
             **** THE GBW FILE WAS UPDATED (Kr_137_.gbw) ****
             **** DENSITY FILE WAS UPDATED (Kr_137_.scfp) ****
             **** ENERGY FILE WAS UPDATED (Kr_137_.en.tmp) ****
             **** THE GBW FILE WAS UPDATED (Kr_137_.gbw) ****
             **** DENSITY FILE WAS UPDATED (Kr_137_.scfp) ****
----------------
ORBITAL ENERGIES
----------------

  NO   OCC          E(Eh)            E(eV) 
   0   2.0000    -638.846877    -17383.9073 
   1   0.0000    -153.352205     -4172.9257 
   2   0.0000    -148.928272     -4052.5443 
   3   0.0000    -148.928272     -4052.5443 
   4   0.0000    -148.928272     -4052.5443 
   5   0.0000     -66.839832     -1818.8043 
   6   0.0000     -64.109949     -1744.5204 
   7   0.0000     -64.109949     -1744.5204 
   8   0.0000     -64.109949     -1744.5204 
   9   0.0000     -59.657528     -1623.3639 
  10   0.0000     -59.657528     -1623.3639 
  11   0.0000     -59.657528     -1623.3639 
  12   0.0000     -59.657528     -1623.3639 
  13   0.0000     -59.657528     -1623.3639 
  14   0.0000     -37.225149     -1012.9478 
  15   0.0000     -35.916088      -977.3264 
  16   0.0000     -35.916088      -977.3264 
  17   0.0000     -35.916088      -977.3264 
  18   0.0000     -35.916088      -977.3264 
  19   0.0000     -35.916088      -977.3264 
  20   0.0000     -35.916088      -977.3264 
  21   0.0000     -35.916088      -977.3264 
  22   0.0000     -35.247714      -959.1391 
  23   0.0000     -35.247714      -959.1391 
  24   0.0000     -35.247714      -959.1391 
  25   0.0000     -29.014762      -789.5318 
  26   0.0000     -29.014762      -789.5318 
  27   0.0000     -29.014762      -789.5318 
  28   0.0000     -29.014762      -789.5318 
  29   0.0000     -29.014762      -789.5318 
  30   0.0000     -23.529904      -640.2812 
  31   0.0000     -22.240242      -605.1878 
  32   0.0000     -22.240242      -605.1878 
  33   0.0000     -22.240242      -605.1878 
  34   0.0000     -20.822547      -566.6103 
  35   0.0000     -20.822547      -566.6103 
  36   0.0000     -20.822547      -566.6103 
  37   0.0000     -20.822547      -566.6103 
  38   0.0000     -20.822547      -566.6103 
  39   0.0000     -20.822547      -566.6103 
  40   0.0000     -20.822547      -566.6103 
  41   0.0000     -17.128180      -466.0815 
  42   0.0000     -17.128180      -466.0815 
  43   0.0000     -17.128180      -466.0815 
  44   0.0000     -17.128180      -466.0815 
  45   0.0000     -17.128180      -466.0815 
  46   0.0000     -15.924550      -433.3290 
  47   0.0000     -15.196101      -413.5069 
  48   0.0000     -15.196101      -413.5069 
  49   0.0000     -15.196101      -413.5069 
  50   0.0000     -14.898038      -405.3962 
  51   0.0000     -14.898038      -405.3962 
  52   0.0000     -14.898038      -405.3962 
  53   0.0000     -14.898038      -405.3962 
  54   0.0000     -14.898038      -405.3962 
  55   0.0000     -14.898038      -405.3962 
  56   0.0000     -14.898038      -405.3962 
  57   0.0000     -14.898038      -405.3962 
  58   0.0000     -14.898038      -405.3962 
  59   0.0000     -14.631218      -398.1357 
  60   0.0000     -14.631218      -398.1357 
  61   0.0000     -14.631218      -398.1357 
  62   0.0000     -14.631218      -398.1357 
  63   0.0000     -14.631218      -398.1357 
  64   0.0000     -14.631218      -398.1357 
  65   0.0000     -14.631218      -398.1357 
  66   0.0000     -11.585138      -315.2476 
  67   0.0000     -11.238747      -305.8218 
  68   0.0000     -11.238747      -305.8218 
  69   0.0000     -11.238747      -305.8218 
  70   0.0000     -11.238747      -305.8218 
  71   0.0000     -11.238747      -305.8218 
  72   0.0000     -11.238747      -305.8218 
  73   0.0000     -11.238747      -305.8218 
  74   0.0000     -10.913881      -296.9818 
  75   0.0000     -10.913881      -296.9818 
  76   0.0000     -10.913881      -296.9818 
  77   0.0000     -10.913881      -296.9818 
  78   0.0000     -10.913881      -296.9818 
  79   0.0000     -10.664795      -290.2038 
  80   0.0000     -10.664795      -290.2038 
  81   0.0000     -10.664795      -290.2038 
  82   0.0000      -8.796843      -239.3743 
  83   0.0000      -7.221412      -196.5046 
  84   0.0000      -7.221412      -196.5046 
  85   0.0000      -7.221412      -196.5046 
  86   0.0000      -6.746742      -183.5882 
  87   0.0000      -6.746742      -183.5882 
  88   0.0000      -6.746742      -183.5882 
  89   0.0000      -6.746742      -183.5882 
  90   0.0000      -6.746742      -183.5882 
  91   0.0000      -5.992222      -163.0567 
  92   0.0000      -4.335459      -117.9738 
  93   0.0000      -4.335459      -117.9738 
  94   0.0000      -4.335459      -117.9738 
  95   0.0000      34.279041       932.7801 
  96   0.0000     250.919649      6827.8708 
  97   0.0000    1639.315571     44608.0445 

                    ********************************
                    * MULLIKEN POPULATION ANALYSIS *
                    ********************************

-----------------------
MULLIKEN ATOMIC CHARGES
-----------------------
   0 Kr:   34.000000
Sum of atomic charges:   34.0000000

--------------------------------
MULLIKEN REDUCED ORBITAL CHARGES
--------------------------------
  0 Krs       :     2.000000  s :     2.000000
      pz      :     0.000000  p :     0.000000
      px      :     0.000000
      py      :     0.000000
      dz2     :     0.000000  d :     0.000000
      dxz     :     0.000000
      dyz     :     0.000000
      dx2y2   :     0.000000
      dxy     :     0.000000
      f0      :     0.000000  f :     0.000000
      f+1     :     0.000000
      f-1     :     0.000000
      f+2     :     0.000000
      f-2     :     0.000000
      f+3     :     0.000000
      f-3     :     0.000000
      g0      :     0.000000  g :     0.000000
      g+1     :     0.000000
      g-1     :     0.000000
      g+2     :     0.000000
      g-2     :     0.000000
      g+3     :     0.000000
      g-3     :     0.000000
      g+4     :     0.000000
      g-4     :     0.000000


                     *******************************
                     * LOEWDIN POPULATION ANALYSIS *
                     *******************************

----------------------
LOEWDIN ATOMIC CHARGES
----------------------
   0 Kr:   34.000000

-------------------------------
LOEWDIN REDUCED ORBITAL CHARGES
-------------------------------
  0 Krs       :     2.000000  s :     2.000000
      pz      :     0.000000  p :     0.000000
      px      :     0.000000
      py      :     0.000000
      dz2     :     0.000000  d :     0.000000
      dxz     :     0.000000
      dyz     :     0.000000
      dx2y2   :     0.000000
      dxy     :     0.000000
      f0      :     0.000000  f :     0.000000
      f+1     :     0.000000
      f-1     :     0.000000
      f+2     :     0.000000
      f-2     :     0.000000
      f+3     :     0.000000
      f-3     :     0.000000
      g0      :     0.000000  g :     0.000000
      g+1     :     0.000000
      g-1     :     0.000000
      g+2     :     0.000000
      g-2     :     0.000000
      g+3     :     0.000000
      g-3     :     0.000000
      g+4     :     0.000000
      g-4     :     0.000000


                      *****************************
                      * MAYER POPULATION ANALYSIS *
                      *****************************

  NA   - Mulliken gross atomic population
  ZA   - Total nuclear charge
  QA   - Mulliken gross atomic charge
  VA   - Mayer's total valence
  BVA  - Mayer's bonded valence
  FA   - Mayer's free valence

  ATOM       NA         ZA         QA         VA         BVA        FA
  0 Kr     2.0000    36.0000    34.0000    -0.0000     0.0000    -0.0000

  Mayer bond orders larger than 0.100000


--------------------------
ATOM BASIS FOR ELEMENT Kr
--------------------------
 NewGTO Kr
 S 25
    1   11713823.007999999449         0.000006622788
    2    1755253.397899999982         0.000051448317
    3     399717.419240000017         0.000270280504
    4     113285.792600000001         0.001140028709
    5      36977.205292999999         0.004135184515
    6      13355.036580000000         0.013345032550
    7       5210.901298800000         0.038680202094
    8       2162.113702000000         0.099628905761
    9        943.292910230000         0.217696586562
   10        429.207243310000         0.366508194788
   11        202.407208400000         0.388716894390
   12       3260.498552100000        -0.001088605165
   13       1011.106971600000        -0.011027370262
   14        392.443592730000        -0.052746086795
   15        173.217021320000        -0.119430264328
   16         96.619988467000         0.241371204067
   17         38.158284867000        -0.085702212224
   18         18.959517570000         0.092183159676
   19          9.250599619900        -0.066824148690
   20          4.348651762100         0.039921841818
   21          2.038032420900        -0.019332963132
   22          0.691101525400         0.009813833954
   23          0.335060651400        -0.006705560179
   24          0.140744411200         0.002713646358
   25          0.056272458600        -0.000701058041
 S 25
    1   11713823.007999999449         0.000002380014
    2    1755253.397899999982         0.000018488848
    3     399717.419240000017         0.000097130004
    4     113285.792600000001         0.000409689160
    5      36977.205292999999         0.001486050532
    6      13355.036580000000         0.004795769729
    7       5210.901298800000         0.013900403885
    8       2162.113702000000         0.035803381413
    9        943.292910230000         0.078233057580
   10        429.207243310000         0.131711099192
   11        202.407208400000         0.139692181955
   12       3260.498552100000         0.000788558369
   13       1011.106971600000         0.007987951364
   14        392.443592730000         0.038207946767
   15        173.217021320000         0.086512298052
   16         96.619988467000         0.042559566338
   17         38.158284867000        -0.662801430507
   18         18.959517570000        -0.425557469369
   19          9.250599619900        -0.094504744176
   20          4.348651762100         0.029594933958
   21          2.038032420900        -0.014134732408
   22          0.691101525400         0.007160972050
   23          0.335060651400        -0.004880034920
   24          0.140744411200         0.001967203204
   25          0.056272458600        -0.000506366408
 S 25
    1   11713823.007999999449        -0.000001273440
    2    1755253.397899999982        -0.000009892565
    3     399717.419240000017        -0.000051969969
    4     113285.792600000001        -0.000219206547
    5      36977.205292999999        -0.000795119906
    6      13355.036580000000        -0.002566004248
    7       5210.901298800000        -0.007437491256
    8       2162.113702000000        -0.019156805686
    9        943.292910230000        -0.041859048590
   10        429.207243310000        -0.070472783136
   11        202.407208400000        -0.074743107492
   12       3260.498552100000        -0.000598599839
   13       1011.106971600000        -0.006063706360
   14        392.443592730000        -0.029003903411
   15        173.217021320000        -0.065672053822
   16         96.619988467000        -0.017953457066
   17         38.158284867000         0.698835741331
   18         18.959517570000         0.689787300473
   19          9.250599619900        -1.035401178374
   20          4.348651762100        -0.648944948920
   21          2.038032420900         0.073617199123
   22          0.691101525400        -0.032471424929
   23          0.335060651400         0.021102590741
   24          0.140744411200        -0.008260697141
   25          0.056272458600         0.002092864972
 S 25
    1   11713823.007999999449         0.000000815909
    2    1755253.397899999982         0.000006338289
    3     399717.419240000017         0.000033297802
    4     113285.792600000001         0.000140448349
    5      36977.205292999999         0.000509443169
    6      13355.036580000000         0.001644070694
    7       5210.901298800000         0.004765292738
    8       2162.113702000000         0.012274002602
    9        943.292910230000         0.026819610730
   10        429.207243310000         0.045152784749
   11        202.407208400000         0.047888834439
   12       3260.498552100000         0.000447884368
   13       1011.106971600000         0.004536986341
   14        392.443592730000         0.021701300461
   15        173.217021320000         0.049137143772
   16         96.619988467000         0.000182470230
   17         38.158284867000        -0.525581701357
   18         18.959517570000        -0.849333578049
   19          9.250599619900         2.277463616513
   20          4.348651762100        -0.033452685560
   21          2.038032420900        -1.634316285250
   22          0.691101525400         0.209136312801
   23          0.335060651400        -0.131898177338
   24          0.140744411200         0.050227795070
   25          0.056272458600        -0.012505322288
 S 25
    1   11713823.007999999449         0.000000577689
    2    1755253.397899999982         0.000004487706
    3     399717.419240000017         0.000023575879
    4     113285.792600000001         0.000099441798
    5      36977.205292999999         0.000360701604
    6      13355.036580000000         0.001164053170
    7       5210.901298800000         0.003373975425
    8       2162.113702000000         0.008690375476
    9        943.292910230000         0.018989118295
   10        429.207243310000         0.031969575532
   11        202.407208400000         0.033906783784
   12       3260.498552100000         0.000382719239
   13       1011.106971600000         0.003876875557
   14        392.443592730000         0.018543860390
   15        173.217021320000         0.041987913847
   16         96.619988467000        -0.025391628373
   17         38.158284867000        -0.307919417592
   18         18.959517570000        -1.133733938943
   19          9.250599619900         3.511400686467
   20          4.348651762100        -2.676279764746
   21          2.038032420900        -0.804325099356
   22          0.691101525400         2.497624914858
   23          0.335060651400        -1.063669502222
   24          0.140744411200         0.357704124104
   25          0.056272458600        -0.084500025090
 S 25
    1   11713823.007999999449         0.000000485681
    2    1755253.397899999982         0.000003772955
    3     399717.419240000017         0.000019820982
    4     113285.792600000001         0.000083603843
    5      36977.205292999999         0.000303253168
    6      13355.036580000000         0.000978656063
    7       5210.901298800000         0.002836607117
    8       2162.113702000000         0.007306271628
    9        943.292910230000         0.015964748199
   10        429.207243310000         0.026877826314
   11        202.407208400000         0.028506498139
   12       3260.498552100000         0.000379013745
   13       1011.106971600000         0.003839339581
   14        392.443592730000         0.018364318414
   15        173.217021320000         0.041581386139
   16         96.619988467000        -0.046716690873
   17         38.158284867000        -0.167387954519
   18         18.959517570000        -1.469924281340
   19          9.250599619900         4.793792556859
   20          4.348651762100        -6.111858432362
   21          2.038032420900         3.325238413004
   22          0.691101525400         1.305397136777
   23          0.335060651400        -2.810537536139
   24          0.140744411200         0.846275449053
   25          0.056272458600        -0.191617177781
 S 25
    1   11713823.007999999449         0.000000479965
    2    1755253.397899999982         0.000003728551
    3     399717.419240000017         0.000019587710
    4     113285.792600000001         0.000082619911
    5      36977.205292999999         0.000299684187
    6      13355.036580000000         0.000967138276
    7       5210.901298800000         0.002803223135
    8       2162.113702000000         0.007220284240
    9        943.292910230000         0.015776859347
   10        429.207243310000         0.026561501629
   11        202.407208400000         0.028171005643
   12       3260.498552100000         0.000394304943
   13       1011.106971600000         0.003994236607
   14        392.443592730000         0.019105221438
   15        173.217021320000         0.043258974931
   16         96.619988467000        -0.054481250356
   17         38.158284867000        -0.138353539462
   18         18.959517570000        -1.682993994880
   19          9.250599619900         5.801902248523
   20          4.348651762100        -8.946465070433
   21          2.038032420900         7.906135882356
   22          0.691101525400        -5.790019378448
   23          0.335060651400         2.785622435059
   24          0.140744411200         0.430343104394
   25          0.056272458600        -0.111302429827
 S 25
    1   11713823.007999999449         0.000000283952
    2    1755253.397899999982         0.000002205844
    3     399717.419240000017         0.000011588263
    4     113285.792600000001         0.000048878673
    5      36977.205292999999         0.000177295825
    6      13355.036580000000         0.000572167588
    7       5210.901298800000         0.001658411687
    8       2162.113702000000         0.004271584240
    9        943.292910230000         0.009333730016
   10        429.207243310000         0.015714020109
   11        202.407208400000         0.016666216968
   12       3260.498552100000         0.000226615796
   13       1011.106971600000         0.002295576365
   14        392.443592730000         0.010980194490
   15        173.217021320000         0.024861892322
   16         96.619988467000        -0.028377296723
   17         38.158284867000        -0.102716197180
   18         18.959517570000        -0.974529640843
   19          9.250599619900         3.599509159420
   20          4.348651762100        -6.072339901185
   21          2.038032420900         6.339507421244
   22          0.691101525400        -7.893049047982
   23          0.335060651400         8.675460433315
   24          0.140744411200        -4.577086069347
   25          0.056272458600         0.614490081455
 S 25
    1   11713823.007999999449        -0.000000096223
    2    1755253.397899999982        -0.000000747499
    3     399717.419240000017        -0.000003926941
    4     113285.792600000001        -0.000016563625
    5      36977.205292999999        -0.000060080633
    6      13355.036580000000        -0.000193891711
    7       5210.901298800000        -0.000561989681
    8       2162.113702000000        -0.001447521314
    9        943.292910230000        -0.003162941985
   10        429.207243310000        -0.005325045171
   11        202.407208400000        -0.005647718253
   12       3260.498552100000        -0.000069252769
   13       1011.106971600000        -0.000701517824
   14        392.443592730000        -0.003355498106
   15        173.217021320000        -0.007597682597
   16         96.619988467000         0.005665077439
   17         38.158284867000         0.053924697462
   18         18.959517570000         0.278746287823
   19          9.250599619900        -1.166394494146
   20          4.348651762100         2.110886487770
   21          2.038032420900        -2.423613466692
   22          0.691101525400         3.847088576197
   23          0.335060651400        -5.668645132053
   24          0.140744411200         5.508838031645
   25          0.056272458600        -3.029189019158
 S 25
    1   11713823.007999999449         0.000002247990
    2    1755253.397899999982         0.000017463235
    3     399717.419240000017         0.000091742010
    4     113285.792600000001         0.000386962892
    5      36977.205292999999         0.001403616372
    6      13355.036580000000         0.004529738904
    7       5210.901298800000         0.013129321011
    8       2162.113702000000         0.033817297089
    9        943.292910230000         0.073893315266
   10        429.207243310000         0.124404824223
   11        202.407208400000         0.131943180553
   12       3260.498552100000        -0.000283613553
   13       1011.106971600000        -0.002872953169
   14        392.443592730000        -0.013741901613
   15        173.217021320000        -0.031115084394
   16         96.619988467000         0.955679631694
   17         38.158284867000        -7.636680367059
   18         18.959517570000        15.256113962798
   19          9.250599619900       -15.921769349598
   20          4.348651762100        11.363960099058
   21          2.038032420900        -5.928490550752
   22          0.691101525400         3.162423032742
   23          0.335060651400        -2.215562595484
   24          0.140744411200         0.920237160064
   25          0.056272458600        -0.242893484269
 S 25
    1   11713823.007999999449        -0.000001586135
    2    1755253.397899999982        -0.000012321694
    3     399717.419240000017        -0.000064731245
    4     113285.792600000001        -0.000273032930
    5      36977.205292999999        -0.000990362378
    6      13355.036580000000        -0.003196089103
    7       5210.901298800000        -0.009263774513
    8       2162.113702000000        -0.023860778073
    9        943.292910230000        -0.052137578944
   10        429.207243310000        -0.087777444015
   11        202.407208400000        -0.093096350696
   12       3260.498552100000        -0.012918986488
   13       1011.106971600000        -0.130866958974
   14        392.443592730000        -0.625962474500
   15        173.217021320000        -1.417334788825
   16         96.619988467000         6.641987130175
   17         38.158284867000       -11.013084952670
   18         18.959517570000        12.169388560187
   19          9.250599619900        -8.826208281797
   20          4.348651762100         5.144869911334
   21          2.038032420900        -2.439485394417
   22          0.691101525400         1.223185911196
   23          0.335060651400        -0.835297455428
   24          0.140744411200         0.338832336307
   25          0.056272458600        -0.087810935241
 S 25
    1   11713823.007999999449        -0.000036078363
    2    1755253.397899999982        -0.000280270360
    3     399717.419240000017        -0.001472382740
    4     113285.792600000001        -0.006210431631
    5      36977.205292999999        -0.022526871920
    6      13355.036580000000        -0.072698530843
    7       5210.901298800000        -0.210714650150
    8       2162.113702000000        -0.542739408938
    9        943.292910230000        -1.185926070515
   10        429.207243310000        -1.996593654134
   11        202.407208400000        -2.117577984966
   12       3260.498552100000         0.059618956969
   13       1011.106971600000         0.603929077805
   14        392.443592730000         2.888711886711
   15        173.217021320000         6.540762455765
   16         96.619988467000        -7.602320091013
   17         38.158284867000         7.005305506456
   18         18.959517570000        -6.594329785681
   19          9.250599619900         4.524947226110
   20          4.348651762100        -2.610137424207
   21          2.038032420900         1.240148444027
   22          0.691101525400        -0.623002647694
   23          0.335060651400         0.425027230155
   24          0.140744411200        -0.172048061317
   25          0.056272458600         0.044490973111
 P 21
    1      28609.335767000000         0.000064898628
    2       6773.123636400000         0.000576716343
    3       2199.801107900000         0.003317002522
    4        841.502015900000         0.014490548216
    5        356.921102880000         0.050491719561
    6        162.711743510000         0.138965848917
    7         78.004264994000         0.285294690987
    8         38.682579997000         0.394324175034
    9         19.589158685000         0.293866879139
   10          9.799086341700         0.084463679620
   11        261.377868690000         0.000504201792
   12        100.099321460000         0.003700608689
   13         44.012139363000         0.010728866239
   14         10.854010739000        -0.077526982029
   15          5.435193018200        -0.176503036474
   16          2.706280554200         0.221420762022
   17          1.319563340800        -0.158765234156
   18          0.580044559700         0.082757408620
   19          0.243299762600        -0.038162612554
   20          0.096823725100         0.013817516437
   21          0.026906848500        -0.003054972520
 P 21
    1      28609.335767000000         0.000029409533
    2       6773.123636400000         0.000261345406
    3       2199.801107900000         0.001503136473
    4        841.502015900000         0.006566552602
    5        356.921102880000         0.022880882596
    6        162.711743510000         0.062973915359
    7         78.004264994000         0.129284452710
    8         38.682579997000         0.178692372379
    9         19.589158685000         0.133169034824
   10          9.799086341700         0.038275652995
   11        261.377868690000         0.003229019556
   12        100.099321460000         0.023699514775
   13         44.012139363000         0.068710027280
   14         10.854010739000        -0.496499903309
   15          5.435193018200        -1.130364400230
   16          2.706280554200         0.768633511317
   17          1.319563340800        -0.519184671385
   18          0.580044559700         0.260539982070
   19          0.243299762600        -0.117529434889
   20          0.096823725100         0.041924049273
   21          0.026906848500        -0.009143832930
 P 21
    1      28609.335767000000         0.000013654337
    2       6773.123636400000         0.000121338146
    3       2199.801107900000         0.000697880235
    4        841.502015900000         0.003048736660
    5        356.921102880000         0.010623197562
    6        162.711743510000         0.029237698384
    7         78.004264994000         0.060024532578
    8         38.682579997000         0.082963774085
    9         19.589158685000         0.061828076785
   10          9.799086341700         0.017770722867
   11        261.377868690000         0.003253557552
   12        100.099321460000         0.023879612351
   13         44.012139363000         0.069232169166
   14         10.854010739000        -0.500272910051
   15          5.435193018200        -1.138954276027
   16          2.706280554200         2.342981131330
   17          1.319563340800        -0.706576963926
   18          0.580044559700         0.372531709820
   19          0.243299762600        -0.164496765032
   20          0.096823725100         0.057543036866
   21          0.026906848500        -0.012302632999
 P 21
    1      28609.335767000000         0.000007156972
    2       6773.123636400000         0.000063599845
    3       2199.801107900000         0.000365796544
    4        841.502015900000         0.001598006762
    5        356.921102880000         0.005568188870
    6        162.711743510000         0.015325049335
    7         78.004264994000         0.031462084020
    8         38.682579997000         0.043485773545
    9         19.589158685000         0.032407418484
   10          9.799086341700         0.009314591083
   11        261.377868690000         0.002549566779
   12        100.099321460000         0.018712644657
   13         44.012139363000         0.054252010519
   14         10.854010739000        -0.392026011971
   15          5.435193018200        -0.892512254167
   16          2.706280554200         3.203413261200
   17          1.319563340800        -2.837484885559
   18          0.580044559700         0.380933515645
   19          0.243299762600        -0.186157185147
   20          0.096823725100         0.064012906336
   21          0.026906848500        -0.013330356299
 P 21
    1      28609.335767000000         0.000003947811
    2       6773.123636400000         0.000035081903
    3       2199.801107900000         0.000201774688
    4        841.502015900000         0.000881466271
    5        356.921102880000         0.003071432984
    6        162.711743510000         0.008453352266
    7         78.004264994000         0.017354598567
    8         38.682579997000         0.023986908902
    9         19.589158685000         0.017876048453
   10          9.799086341700         0.005137961902
   11        261.377868690000         0.001745018794
   12        100.099321460000         0.012807633392
   13         44.012139363000         0.037132103679
   14         10.854010739000        -0.268317254642
   15          5.435193018200        -0.610868744573
   16          2.706280554200         2.915936920664
   17          1.319563340800        -4.322328690734
   18          0.580044559700         2.965923261350
   19          0.243299762600        -0.442628334724
   20          0.096823725100         0.132531154834
   21          0.026906848500        -0.025571405704
 P 21
    1      28609.335767000000         0.000001965184
    2       6773.123636400000         0.000017463449
    3       2199.801107900000         0.000100441587
    4        841.502015900000         0.000438785815
    5        356.921102880000         0.001528931133
    6        162.711743510000         0.004208001129
    7         78.004264994000         0.008638959795
    8         38.682579997000         0.011940462974
    9         19.589158685000         0.008898532760
   10          9.799086341700         0.002557630252
   11        261.377868690000         0.000951802569
   12        100.099321460000         0.006985792019
   13         44.012139363000         0.020253324373
   14         10.854010739000        -0.146350889250
   15          5.435193018200        -0.333192079288
   16          2.706280554200         1.811167953956
   17          1.319563340800        -3.390100318019
   18          0.580044559700         4.055198015946
   19          0.243299762600        -2.948004606395
   20          0.096823725100         0.513887255645
   21          0.026906848500        -0.083817111916
 P 21
    1      28609.335767000000         0.000000823235
    2       6773.123636400000         0.000007315610
    3       2199.801107900000         0.000042075963
    4        841.502015900000         0.000183811667
    5        356.921102880000         0.000640484198
    6        162.711743510000         0.001762772808
    7         78.004264994000         0.003618944708
    8         38.682579997000         0.005001976664
    9         19.589158685000         0.003727682361
   10          9.799086341700         0.001071416315
   11        261.377868690000         0.000403717042
   12        100.099321460000         0.002963096948
   13         44.012139363000         0.008590659938
   14         10.854010739000        -0.062076264519
   15          5.435193018200        -0.141326914756
   16          2.706280554200         0.799621545922
   17          1.319563340800        -1.634687630579
   18          0.580044559700         2.457113509605
   19          0.243299762600        -3.052447619148
   20          0.096823725100         2.347956928822
   21          0.026906848500        -0.260939330827
 P 21
    1      28609.335767000000         0.000000284319
    2       6773.123636400000         0.000002526581
    3       2199.801107900000         0.000014531711
    4        841.502015900000         0.000063482754
    5        356.921102880000         0.000221203048
    6        162.711743510000         0.000608806149
    7         78.004264994000         0.001249869400
    8         38.682579997000         0.001727525032
    9         19.589158685000         0.001287423957
   10          9.799086341700         0.000370033414
   11        261.377868690000         0.000136025717
   12        100.099321460000         0.000998366046
   13         44.012139363000         0.002894479439
   14         10.854010739000        -0.020915560925
   15          5.435193018200        -0.047617744380
   16          2.706280554200         0.267599356622
   17          1.319563340800        -0.551143148459
   18          0.580044559700         0.869207478051
   19          0.243299762600        -1.269746320663
   20          0.096823725100         1.522511835845
   21          0.026906848500        -1.444474434303
 D 11
    1        665.350573860000         0.000798885995
    2        200.179953660000         0.007319271895
    3         77.545085570000         0.037513191314
    4         33.677854345000         0.126182453204
    5         15.624928334000         0.292603448224
    6          7.442786742300         0.452340636614
    7          3.533607353500         0.471129381263
    8          1.636372514200        -0.452019743277
    9          0.678456847300         0.254185684250
   10          0.270000000000        -0.107767293103
   11          0.090067366900         0.030075161328
 D 11
    1        665.350573860000         0.000284283618
    2        200.179953660000         0.002604563238
    3         77.545085570000         0.013349070841
    4         33.677854345000         0.044902031730
    5         15.624928334000         0.104122950401
    6          7.442786742300         0.160965436177
    7          3.533607353500         0.167651411818
    8          1.636372514200        -1.466091957386
    9          0.678456847300         0.519022758201
   10          0.270000000000        -0.202596989781
   11          0.090067366900         0.053725651664
 D 11
    1        665.350573860000         0.000124356429
    2        200.179953660000         0.001139334680
    3         77.545085570000         0.005839389550
    4         33.677854345000         0.019641850582
    5         15.624928334000         0.045547325034
    6          7.442786742300         0.070412382791
    7          3.533607353500         0.073337081952
    8          1.636372514200        -1.097162526942
    9          0.678456847300         1.800304729857
   10          0.270000000000        -0.380353267739
   11          0.090067366900         0.088671365831
 D 11
    1        665.350573860000         0.000054878114
    2        200.179953660000         0.000502784928
    3         77.545085570000         0.002576904842
    4         33.677854345000         0.008667888901
    5         15.624928334000         0.020099895958
    6          7.442786742300         0.031072770293
    7          3.533607353500         0.032363431134
    8          1.636372514200        -0.572545611917
    9          0.678456847300         1.465933269672
   10          0.270000000000        -1.750066312491
   11          0.090067366900         0.230827110519
 D 11
    1        665.350573860000         0.000020231306
    2        200.179953660000         0.000185356149
    3         77.545085570000         0.000949998959
    4         33.677854345000         0.003195494572
    5         15.624928334000         0.007410005962
    6          7.442786742300         0.011455253978
    7          3.533607353500         0.011931067612
    8          1.636372514200        -0.212218524667
    9          0.678456847300         0.610299974000
   10          0.270000000000        -1.099615927293
   11          0.090067366900         1.363089559931
 F 4
    1         14.180116992000         0.494355080789
    2          4.539318368000         0.654863680611
    3          0.413000000000        -0.000456279205
    4          0.955700000000         0.007540235623
 F 4
    1         14.180116992000         0.580594195981
    2          4.539318368000        -0.319353233356
    3          0.413000000000         0.251545895573
    4          0.955700000000        -0.940207983543
 F 4
    1         14.180116992000         0.797967885895
    2          4.539318368000        -0.865401302377
    3          0.413000000000         0.297066963635
    4          0.955700000000         0.514619427773
 F 4
    1         14.180116992000         0.380043446525
    2          4.539318368000        -0.501930584534
    3          0.413000000000        -1.335983230551
    4          0.955700000000         0.991782693502
 G 1
    1          0.739500000000         1.000000000000
 end
  // -----------------------------------------------
  // The basis set
  // -----------------------------------------------
  BAS[ATNO] = new BFNGauss[NSH];
  // Basis function   1 L = s
  InitBFNGauss(BAS[ATNO][  0]);
  BAS[ATNO][  0].l  = 0;
  BAS[ATNO][  0].ng = 25;
  BAS[ATNO][  0].a[  0] =  11713823.007999999449;     BAS[ATNO][  0].d[  0] =         0.000006622788;
  BAS[ATNO][  0].a[  1] =   1755253.397899999982;     BAS[ATNO][  0].d[  1] =         0.000051448317;
  BAS[ATNO][  0].a[  2] =    399717.419240000017;     BAS[ATNO][  0].d[  2] =         0.000270280504;
  BAS[ATNO][  0].a[  3] =    113285.792600000001;     BAS[ATNO][  0].d[  3] =         0.001140028709;
  BAS[ATNO][  0].a[  4] =     36977.205292999999;     BAS[ATNO][  0].d[  4] =         0.004135184515;
  BAS[ATNO][  0].a[  5] =     13355.036580000000;     BAS[ATNO][  0].d[  5] =         0.013345032550;
  BAS[ATNO][  0].a[  6] =      5210.901298800000;     BAS[ATNO][  0].d[  6] =         0.038680202094;
  BAS[ATNO][  0].a[  7] =      2162.113702000000;     BAS[ATNO][  0].d[  7] =         0.099628905761;
  BAS[ATNO][  0].a[  8] =       943.292910230000;     BAS[ATNO][  0].d[  8] =         0.217696586562;
  BAS[ATNO][  0].a[  9] =       429.207243310000;     BAS[ATNO][  0].d[  9] =         0.366508194788;
  BAS[ATNO][  0].a[ 10] =       202.407208400000;     BAS[ATNO][  0].d[ 10] =         0.388716894390;
  BAS[ATNO][  0].a[ 11] =      3260.498552100000;     BAS[ATNO][  0].d[ 11] =        -0.001088605165;
  BAS[ATNO][  0].a[ 12] =      1011.106971600000;     BAS[ATNO][  0].d[ 12] =        -0.011027370262;
  BAS[ATNO][  0].a[ 13] =       392.443592730000;     BAS[ATNO][  0].d[ 13] =        -0.052746086795;
  BAS[ATNO][  0].a[ 14] =       173.217021320000;     BAS[ATNO][  0].d[ 14] =        -0.119430264328;
  BAS[ATNO][  0].a[ 15] =        96.619988467000;     BAS[ATNO][  0].d[ 15] =         0.241371204067;
  BAS[ATNO][  0].a[ 16] =        38.158284867000;     BAS[ATNO][  0].d[ 16] =        -0.085702212224;
  BAS[ATNO][  0].a[ 17] =        18.959517570000;     BAS[ATNO][  0].d[ 17] =         0.092183159676;
  BAS[ATNO][  0].a[ 18] =         9.250599619900;     BAS[ATNO][  0].d[ 18] =        -0.066824148690;
  BAS[ATNO][  0].a[ 19] =         4.348651762100;     BAS[ATNO][  0].d[ 19] =         0.039921841818;
  BAS[ATNO][  0].a[ 20] =         2.038032420900;     BAS[ATNO][  0].d[ 20] =        -0.019332963132;
  BAS[ATNO][  0].a[ 21] =         0.691101525400;     BAS[ATNO][  0].d[ 21] =         0.009813833954;
  BAS[ATNO][  0].a[ 22] =         0.335060651400;     BAS[ATNO][  0].d[ 22] =        -0.006705560179;
  BAS[ATNO][  0].a[ 23] =         0.140744411200;     BAS[ATNO][  0].d[ 23] =         0.002713646358;
  BAS[ATNO][  0].a[ 24] =         0.056272458600;     BAS[ATNO][  0].d[ 24] =        -0.000701058041;

  // Basis function   2 L = s
  InitBFNGauss(BAS[ATNO][  1]);
  BAS[ATNO][  1].l  = 0;
  BAS[ATNO][  1].ng = 25;
  BAS[ATNO][  1].a[  0] =  11713823.007999999449;     BAS[ATNO][  1].d[  0] =        -0.000002380014;
  BAS[ATNO][  1].a[  1] =   1755253.397899999982;     BAS[ATNO][  1].d[  1] =        -0.000018488848;
  BAS[ATNO][  1].a[  2] =    399717.419240000017;     BAS[ATNO][  1].d[  2] =        -0.000097130004;
  BAS[ATNO][  1].a[  3] =    113285.792600000001;     BAS[ATNO][  1].d[  3] =        -0.000409689160;
  BAS[ATNO][  1].a[  4] =     36977.205292999999;     BAS[ATNO][  1].d[  4] =        -0.001486050532;
  BAS[ATNO][  1].a[  5] =     13355.036580000000;     BAS[ATNO][  1].d[  5] =        -0.004795769729;
  BAS[ATNO][  1].a[  6] =      5210.901298800000;     BAS[ATNO][  1].d[  6] =        -0.013900403885;
  BAS[ATNO][  1].a[  7] =      2162.113702000000;     BAS[ATNO][  1].d[  7] =        -0.035803381413;
  BAS[ATNO][  1].a[  8] =       943.292910230000;     BAS[ATNO][  1].d[  8] =        -0.078233057580;
  BAS[ATNO][  1].a[  9] =       429.207243310000;     BAS[ATNO][  1].d[  9] =        -0.131711099192;
  BAS[ATNO][  1].a[ 10] =       202.407208400000;     BAS[ATNO][  1].d[ 10] =        -0.139692181955;
  BAS[ATNO][  1].a[ 11] =      3260.498552100000;     BAS[ATNO][  1].d[ 11] =        -0.000788558369;
  BAS[ATNO][  1].a[ 12] =      1011.106971600000;     BAS[ATNO][  1].d[ 12] =        -0.007987951364;
  BAS[ATNO][  1].a[ 13] =       392.443592730000;     BAS[ATNO][  1].d[ 13] =        -0.038207946767;
  BAS[ATNO][  1].a[ 14] =       173.217021320000;     BAS[ATNO][  1].d[ 14] =        -0.086512298052;
  BAS[ATNO][  1].a[ 15] =        96.619988467000;     BAS[ATNO][  1].d[ 15] =        -0.042559566338;
  BAS[ATNO][  1].a[ 16] =        38.158284867000;     BAS[ATNO][  1].d[ 16] =         0.662801430507;
  BAS[ATNO][  1].a[ 17] =        18.959517570000;     BAS[ATNO][  1].d[ 17] =         0.425557469369;
  BAS[ATNO][  1].a[ 18] =         9.250599619900;     BAS[ATNO][  1].d[ 18] =         0.094504744176;
  BAS[ATNO][  1].a[ 19] =         4.348651762100;     BAS[ATNO][  1].d[ 19] =        -0.029594933958;
  BAS[ATNO][  1].a[ 20] =         2.038032420900;     BAS[ATNO][  1].d[ 20] =         0.014134732408;
  BAS[ATNO][  1].a[ 21] =         0.691101525400;     BAS[ATNO][  1].d[ 21] =        -0.007160972050;
  BAS[ATNO][  1].a[ 22] =         0.335060651400;     BAS[ATNO][  1].d[ 22] =         0.004880034920;
  BAS[ATNO][  1].a[ 23] =         0.140744411200;     BAS[ATNO][  1].d[ 23] =        -0.001967203204;
  BAS[ATNO][  1].a[ 24] =         0.056272458600;     BAS[ATNO][  1].d[ 24] =         0.000506366408;

  // Basis function   3 L = s
  InitBFNGauss(BAS[ATNO][  2]);
  BAS[ATNO][  2].l  = 0;
  BAS[ATNO][  2].ng = 25;
  BAS[ATNO][  2].a[  0] =  11713823.007999999449;     BAS[ATNO][  2].d[  0] =         0.000001273440;
  BAS[ATNO][  2].a[  1] =   1755253.397899999982;     BAS[ATNO][  2].d[  1] =         0.000009892565;
  BAS[ATNO][  2].a[  2] =    399717.419240000017;     BAS[ATNO][  2].d[  2] =         0.000051969969;
  BAS[ATNO][  2].a[  3] =    113285.792600000001;     BAS[ATNO][  2].d[  3] =         0.000219206547;
  BAS[ATNO][  2].a[  4] =     36977.205292999999;     BAS[ATNO][  2].d[  4] =         0.000795119906;
  BAS[ATNO][  2].a[  5] =     13355.036580000000;     BAS[ATNO][  2].d[  5] =         0.002566004248;
  BAS[ATNO][  2].a[  6] =      5210.901298800000;     BAS[ATNO][  2].d[  6] =         0.007437491256;
  BAS[ATNO][  2].a[  7] =      2162.113702000000;     BAS[ATNO][  2].d[  7] =         0.019156805686;
  BAS[ATNO][  2].a[  8] =       943.292910230000;     BAS[ATNO][  2].d[  8] =         0.041859048590;
  BAS[ATNO][  2].a[  9] =       429.207243310000;     BAS[ATNO][  2].d[  9] =         0.070472783136;
  BAS[ATNO][  2].a[ 10] =       202.407208400000;     BAS[ATNO][  2].d[ 10] =         0.074743107492;
  BAS[ATNO][  2].a[ 11] =      3260.498552100000;     BAS[ATNO][  2].d[ 11] =         0.000598599839;
  BAS[ATNO][  2].a[ 12] =      1011.106971600000;     BAS[ATNO][  2].d[ 12] =         0.006063706360;
  BAS[ATNO][  2].a[ 13] =       392.443592730000;     BAS[ATNO][  2].d[ 13] =         0.029003903411;
  BAS[ATNO][  2].a[ 14] =       173.217021320000;     BAS[ATNO][  2].d[ 14] =         0.065672053822;
  BAS[ATNO][  2].a[ 15] =        96.619988467000;     BAS[ATNO][  2].d[ 15] =         0.017953457066;
  BAS[ATNO][  2].a[ 16] =        38.158284867000;     BAS[ATNO][  2].d[ 16] =        -0.698835741331;
  BAS[ATNO][  2].a[ 17] =        18.959517570000;     BAS[ATNO][  2].d[ 17] =        -0.689787300473;
  BAS[ATNO][  2].a[ 18] =         9.250599619900;     BAS[ATNO][  2].d[ 18] =         1.035401178374;
  BAS[ATNO][  2].a[ 19] =         4.348651762100;     BAS[ATNO][  2].d[ 19] =         0.648944948920;
  BAS[ATNO][  2].a[ 20] =         2.038032420900;     BAS[ATNO][  2].d[ 20] =        -0.073617199123;
  BAS[ATNO][  2].a[ 21] =         0.691101525400;     BAS[ATNO][  2].d[ 21] =         0.032471424929;
  BAS[ATNO][  2].a[ 22] =         0.335060651400;     BAS[ATNO][  2].d[ 22] =        -0.021102590741;
  BAS[ATNO][  2].a[ 23] =         0.140744411200;     BAS[ATNO][  2].d[ 23] =         0.008260697141;
  BAS[ATNO][  2].a[ 24] =         0.056272458600;     BAS[ATNO][  2].d[ 24] =        -0.002092864972;

  // Basis function   4 L = s
  InitBFNGauss(BAS[ATNO][  3]);
  BAS[ATNO][  3].l  = 0;
  BAS[ATNO][  3].ng = 25;
  BAS[ATNO][  3].a[  0] =  11713823.007999999449;     BAS[ATNO][  3].d[  0] =         0.000000815909;
  BAS[ATNO][  3].a[  1] =   1755253.397899999982;     BAS[ATNO][  3].d[  1] =         0.000006338289;
  BAS[ATNO][  3].a[  2] =    399717.419240000017;     BAS[ATNO][  3].d[  2] =         0.000033297802;
  BAS[ATNO][  3].a[  3] =    113285.792600000001;     BAS[ATNO][  3].d[  3] =         0.000140448349;
  BAS[ATNO][  3].a[  4] =     36977.205292999999;     BAS[ATNO][  3].d[  4] =         0.000509443169;
  BAS[ATNO][  3].a[  5] =     13355.036580000000;     BAS[ATNO][  3].d[  5] =         0.001644070694;
  BAS[ATNO][  3].a[  6] =      5210.901298800000;     BAS[ATNO][  3].d[  6] =         0.004765292738;
  BAS[ATNO][  3].a[  7] =      2162.113702000000;     BAS[ATNO][  3].d[  7] =         0.012274002602;
  BAS[ATNO][  3].a[  8] =       943.292910230000;     BAS[ATNO][  3].d[  8] =         0.026819610730;
  BAS[ATNO][  3].a[  9] =       429.207243310000;     BAS[ATNO][  3].d[  9] =         0.045152784749;
  BAS[ATNO][  3].a[ 10] =       202.407208400000;     BAS[ATNO][  3].d[ 10] =         0.047888834439;
  BAS[ATNO][  3].a[ 11] =      3260.498552100000;     BAS[ATNO][  3].d[ 11] =         0.000447884368;
  BAS[ATNO][  3].a[ 12] =      1011.106971600000;     BAS[ATNO][  3].d[ 12] =         0.004536986341;
  BAS[ATNO][  3].a[ 13] =       392.443592730000;     BAS[ATNO][  3].d[ 13] =         0.021701300461;
  BAS[ATNO][  3].a[ 14] =       173.217021320000;     BAS[ATNO][  3].d[ 14] =         0.049137143772;
  BAS[ATNO][  3].a[ 15] =        96.619988467000;     BAS[ATNO][  3].d[ 15] =         0.000182470230;
  BAS[ATNO][  3].a[ 16] =        38.158284867000;     BAS[ATNO][  3].d[ 16] =        -0.525581701357;
  BAS[ATNO][  3].a[ 17] =        18.959517570000;     BAS[ATNO][  3].d[ 17] =        -0.849333578049;
  BAS[ATNO][  3].a[ 18] =         9.250599619900;     BAS[ATNO][  3].d[ 18] =         2.277463616513;
  BAS[ATNO][  3].a[ 19] =         4.348651762100;     BAS[ATNO][  3].d[ 19] =        -0.033452685560;
  BAS[ATNO][  3].a[ 20] =         2.038032420900;     BAS[ATNO][  3].d[ 20] =        -1.634316285250;
  BAS[ATNO][  3].a[ 21] =         0.691101525400;     BAS[ATNO][  3].d[ 21] =         0.209136312801;
  BAS[ATNO][  3].a[ 22] =         0.335060651400;     BAS[ATNO][  3].d[ 22] =        -0.131898177338;
  BAS[ATNO][  3].a[ 23] =         0.140744411200;     BAS[ATNO][  3].d[ 23] =         0.050227795070;
  BAS[ATNO][  3].a[ 24] =         0.056272458600;     BAS[ATNO][  3].d[ 24] =        -0.012505322288;

  // Basis function   5 L = s
  InitBFNGauss(BAS[ATNO][  4]);
  BAS[ATNO][  4].l  = 0;
  BAS[ATNO][  4].ng = 25;
  BAS[ATNO][  4].a[  0] =  11713823.007999999449;     BAS[ATNO][  4].d[  0] =         0.000000577689;
  BAS[ATNO][  4].a[  1] =   1755253.397899999982;     BAS[ATNO][  4].d[  1] =         0.000004487706;
  BAS[ATNO][  4].a[  2] =    399717.419240000017;     BAS[ATNO][  4].d[  2] =         0.000023575879;
  BAS[ATNO][  4].a[  3] =    113285.792600000001;     BAS[ATNO][  4].d[  3] =         0.000099441798;
  BAS[ATNO][  4].a[  4] =     36977.205292999999;     BAS[ATNO][  4].d[  4] =         0.000360701604;
  BAS[ATNO][  4].a[  5] =     13355.036580000000;     BAS[ATNO][  4].d[  5] =         0.001164053170;
  BAS[ATNO][  4].a[  6] =      5210.901298800000;     BAS[ATNO][  4].d[  6] =         0.003373975425;
  BAS[ATNO][  4].a[  7] =      2162.113702000000;     BAS[ATNO][  4].d[  7] =         0.008690375476;
  BAS[ATNO][  4].a[  8] =       943.292910230000;     BAS[ATNO][  4].d[  8] =         0.018989118295;
  BAS[ATNO][  4].a[  9] =       429.207243310000;     BAS[ATNO][  4].d[  9] =         0.031969575532;
  BAS[ATNO][  4].a[ 10] =       202.407208400000;     BAS[ATNO][  4].d[ 10] =         0.033906783784;
  BAS[ATNO][  4].a[ 11] =      3260.498552100000;     BAS[ATNO][  4].d[ 11] =         0.000382719239;
  BAS[ATNO][  4].a[ 12] =      1011.106971600000;     BAS[ATNO][  4].d[ 12] =         0.003876875557;
  BAS[ATNO][  4].a[ 13] =       392.443592730000;     BAS[ATNO][  4].d[ 13] =         0.018543860390;
  BAS[ATNO][  4].a[ 14] =       173.217021320000;     BAS[ATNO][  4].d[ 14] =         0.041987913847;
  BAS[ATNO][  4].a[ 15] =        96.619988467000;     BAS[ATNO][  4].d[ 15] =        -0.025391628373;
  BAS[ATNO][  4].a[ 16] =        38.158284867000;     BAS[ATNO][  4].d[ 16] =        -0.307919417592;
  BAS[ATNO][  4].a[ 17] =        18.959517570000;     BAS[ATNO][  4].d[ 17] =        -1.133733938943;
  BAS[ATNO][  4].a[ 18] =         9.250599619900;     BAS[ATNO][  4].d[ 18] =         3.511400686467;
  BAS[ATNO][  4].a[ 19] =         4.348651762100;     BAS[ATNO][  4].d[ 19] =        -2.676279764746;
  BAS[ATNO][  4].a[ 20] =         2.038032420900;     BAS[ATNO][  4].d[ 20] =        -0.804325099356;
  BAS[ATNO][  4].a[ 21] =         0.691101525400;     BAS[ATNO][  4].d[ 21] =         2.497624914858;
  BAS[ATNO][  4].a[ 22] =         0.335060651400;     BAS[ATNO][  4].d[ 22] =        -1.063669502222;
  BAS[ATNO][  4].a[ 23] =         0.140744411200;     BAS[ATNO][  4].d[ 23] =         0.357704124104;
  BAS[ATNO][  4].a[ 24] =         0.056272458600;     BAS[ATNO][  4].d[ 24] =        -0.084500025090;

  // Basis function   6 L = s
  InitBFNGauss(BAS[ATNO][  5]);
  BAS[ATNO][  5].l  = 0;
  BAS[ATNO][  5].ng = 25;
  BAS[ATNO][  5].a[  0] =  11713823.007999999449;     BAS[ATNO][  5].d[  0] =        -0.000000485681;
  BAS[ATNO][  5].a[  1] =   1755253.397899999982;     BAS[ATNO][  5].d[  1] =        -0.000003772955;
  BAS[ATNO][  5].a[  2] =    399717.419240000017;     BAS[ATNO][  5].d[  2] =        -0.000019820982;
  BAS[ATNO][  5].a[  3] =    113285.792600000001;     BAS[ATNO][  5].d[  3] =        -0.000083603843;
  BAS[ATNO][  5].a[  4] =     36977.205292999999;     BAS[ATNO][  5].d[  4] =        -0.000303253168;
  BAS[ATNO][  5].a[  5] =     13355.036580000000;     BAS[ATNO][  5].d[  5] =        -0.000978656063;
  BAS[ATNO][  5].a[  6] =      5210.901298800000;     BAS[ATNO][  5].d[  6] =        -0.002836607117;
  BAS[ATNO][  5].a[  7] =      2162.113702000000;     BAS[ATNO][  5].d[  7] =        -0.007306271628;
  BAS[ATNO][  5].a[  8] =       943.292910230000;     BAS[ATNO][  5].d[  8] =        -0.015964748199;
  BAS[ATNO][  5].a[  9] =       429.207243310000;     BAS[ATNO][  5].d[  9] =        -0.026877826314;
  BAS[ATNO][  5].a[ 10] =       202.407208400000;     BAS[ATNO][  5].d[ 10] =        -0.028506498139;
  BAS[ATNO][  5].a[ 11] =      3260.498552100000;     BAS[ATNO][  5].d[ 11] =        -0.000379013745;
  BAS[ATNO][  5].a[ 12] =      1011.106971600000;     BAS[ATNO][  5].d[ 12] =        -0.003839339581;
  BAS[ATNO][  5].a[ 13] =       392.443592730000;     BAS[ATNO][  5].d[ 13] =        -0.018364318414;
  BAS[ATNO][  5].a[ 14] =       173.217021320000;     BAS[ATNO][  5].d[ 14] =        -0.041581386139;
  BAS[ATNO][  5].a[ 15] =        96.619988467000;     BAS[ATNO][  5].d[ 15] =         0.046716690873;
  BAS[ATNO][  5].a[ 16] =        38.158284867000;     BAS[ATNO][  5].d[ 16] =         0.167387954519;
  BAS[ATNO][  5].a[ 17] =        18.959517570000;     BAS[ATNO][  5].d[ 17] =         1.469924281340;
  BAS[ATNO][  5].a[ 18] =         9.250599619900;     BAS[ATNO][  5].d[ 18] =        -4.793792556859;
  BAS[ATNO][  5].a[ 19] =         4.348651762100;     BAS[ATNO][  5].d[ 19] =         6.111858432362;
  BAS[ATNO][  5].a[ 20] =         2.038032420900;     BAS[ATNO][  5].d[ 20] =        -3.325238413004;
  BAS[ATNO][  5].a[ 21] =         0.691101525400;     BAS[ATNO][  5].d[ 21] =        -1.305397136777;
  BAS[ATNO][  5].a[ 22] =         0.335060651400;     BAS[ATNO][  5].d[ 22] =         2.810537536139;
  BAS[ATNO][  5].a[ 23] =         0.140744411200;     BAS[ATNO][  5].d[ 23] =        -0.846275449053;
  BAS[ATNO][  5].a[ 24] =         0.056272458600;     BAS[ATNO][  5].d[ 24] =         0.191617177781;

  // Basis function   7 L = s
  InitBFNGauss(BAS[ATNO][  6]);
  BAS[ATNO][  6].l  = 0;
  BAS[ATNO][  6].ng = 25;
  BAS[ATNO][  6].a[  0] =  11713823.007999999449;     BAS[ATNO][  6].d[  0] =        -0.000000479965;
  BAS[ATNO][  6].a[  1] =   1755253.397899999982;     BAS[ATNO][  6].d[  1] =        -0.000003728551;
  BAS[ATNO][  6].a[  2] =    399717.419240000017;     BAS[ATNO][  6].d[  2] =        -0.000019587710;
  BAS[ATNO][  6].a[  3] =    113285.792600000001;     BAS[ATNO][  6].d[  3] =        -0.000082619911;
  BAS[ATNO][  6].a[  4] =     36977.205292999999;     BAS[ATNO][  6].d[  4] =        -0.000299684187;
  BAS[ATNO][  6].a[  5] =     13355.036580000000;     BAS[ATNO][  6].d[  5] =        -0.000967138276;
  BAS[ATNO][  6].a[  6] =      5210.901298800000;     BAS[ATNO][  6].d[  6] =        -0.002803223135;
  BAS[ATNO][  6].a[  7] =      2162.113702000000;     BAS[ATNO][  6].d[  7] =        -0.007220284240;
  BAS[ATNO][  6].a[  8] =       943.292910230000;     BAS[ATNO][  6].d[  8] =        -0.015776859347;
  BAS[ATNO][  6].a[  9] =       429.207243310000;     BAS[ATNO][  6].d[  9] =        -0.026561501629;
  BAS[ATNO][  6].a[ 10] =       202.407208400000;     BAS[ATNO][  6].d[ 10] =        -0.028171005643;
  BAS[ATNO][  6].a[ 11] =      3260.498552100000;     BAS[ATNO][  6].d[ 11] =        -0.000394304943;
  BAS[ATNO][  6].a[ 12] =      1011.106971600000;     BAS[ATNO][  6].d[ 12] =        -0.003994236607;
  BAS[ATNO][  6].a[ 13] =       392.443592730000;     BAS[ATNO][  6].d[ 13] =        -0.019105221438;
  BAS[ATNO][  6].a[ 14] =       173.217021320000;     BAS[ATNO][  6].d[ 14] =        -0.043258974931;
  BAS[ATNO][  6].a[ 15] =        96.619988467000;     BAS[ATNO][  6].d[ 15] =         0.054481250356;
  BAS[ATNO][  6].a[ 16] =        38.158284867000;     BAS[ATNO][  6].d[ 16] =         0.138353539462;
  BAS[ATNO][  6].a[ 17] =        18.959517570000;     BAS[ATNO][  6].d[ 17] =         1.682993994880;
  BAS[ATNO][  6].a[ 18] =         9.250599619900;     BAS[ATNO][  6].d[ 18] =        -5.801902248523;
  BAS[ATNO][  6].a[ 19] =         4.348651762100;     BAS[ATNO][  6].d[ 19] =         8.946465070433;
  BAS[ATNO][  6].a[ 20] =         2.038032420900;     BAS[ATNO][  6].d[ 20] =        -7.906135882356;
  BAS[ATNO][  6].a[ 21] =         0.691101525400;     BAS[ATNO][  6].d[ 21] =         5.790019378448;
  BAS[ATNO][  6].a[ 22] =         0.335060651400;     BAS[ATNO][  6].d[ 22] =        -2.785622435059;
  BAS[ATNO][  6].a[ 23] =         0.140744411200;     BAS[ATNO][  6].d[ 23] =        -0.430343104394;
  BAS[ATNO][  6].a[ 24] =         0.056272458600;     BAS[ATNO][  6].d[ 24] =         0.111302429827;

  // Basis function   8 L = s
  InitBFNGauss(BAS[ATNO][  7]);
  BAS[ATNO][  7].l  = 0;
  BAS[ATNO][  7].ng = 25;
  BAS[ATNO][  7].a[  0] =  11713823.007999999449;     BAS[ATNO][  7].d[  0] =         0.000000283952;
  BAS[ATNO][  7].a[  1] =   1755253.397899999982;     BAS[ATNO][  7].d[  1] =         0.000002205844;
  BAS[ATNO][  7].a[  2] =    399717.419240000017;     BAS[ATNO][  7].d[  2] =         0.000011588263;
  BAS[ATNO][  7].a[  3] =    113285.792600000001;     BAS[ATNO][  7].d[  3] =         0.000048878673;
  BAS[ATNO][  7].a[  4] =     36977.205292999999;     BAS[ATNO][  7].d[  4] =         0.000177295825;
  BAS[ATNO][  7].a[  5] =     13355.036580000000;     BAS[ATNO][  7].d[  5] =         0.000572167588;
  BAS[ATNO][  7].a[  6] =      5210.901298800000;     BAS[ATNO][  7].d[  6] =         0.001658411687;
  BAS[ATNO][  7].a[  7] =      2162.113702000000;     BAS[ATNO][  7].d[  7] =         0.004271584240;
  BAS[ATNO][  7].a[  8] =       943.292910230000;     BAS[ATNO][  7].d[  8] =         0.009333730016;
  BAS[ATNO][  7].a[  9] =       429.207243310000;     BAS[ATNO][  7].d[  9] =         0.015714020109;
  BAS[ATNO][  7].a[ 10] =       202.407208400000;     BAS[ATNO][  7].d[ 10] =         0.016666216968;
  BAS[ATNO][  7].a[ 11] =      3260.498552100000;     BAS[ATNO][  7].d[ 11] =         0.000226615796;
  BAS[ATNO][  7].a[ 12] =      1011.106971600000;     BAS[ATNO][  7].d[ 12] =         0.002295576365;
  BAS[ATNO][  7].a[ 13] =       392.443592730000;     BAS[ATNO][  7].d[ 13] =         0.010980194490;
  BAS[ATNO][  7].a[ 14] =       173.217021320000;     BAS[ATNO][  7].d[ 14] =         0.024861892322;
  BAS[ATNO][  7].a[ 15] =        96.619988467000;     BAS[ATNO][  7].d[ 15] =        -0.028377296723;
  BAS[ATNO][  7].a[ 16] =        38.158284867000;     BAS[ATNO][  7].d[ 16] =        -0.102716197180;
  BAS[ATNO][  7].a[ 17] =        18.959517570000;     BAS[ATNO][  7].d[ 17] =        -0.974529640843;
  BAS[ATNO][  7].a[ 18] =         9.250599619900;     BAS[ATNO][  7].d[ 18] =         3.599509159420;
  BAS[ATNO][  7].a[ 19] =         4.348651762100;     BAS[ATNO][  7].d[ 19] =        -6.072339901185;
  BAS[ATNO][  7].a[ 20] =         2.038032420900;     BAS[ATNO][  7].d[ 20] =         6.339507421244;
  BAS[ATNO][  7].a[ 21] =         0.691101525400;     BAS[ATNO][  7].d[ 21] =        -7.893049047982;
  BAS[ATNO][  7].a[ 22] =         0.335060651400;     BAS[ATNO][  7].d[ 22] =         8.675460433315;
[...]
  BAS[ATNO][ 16].a[ 10] =       261.377868690000;     BAS[ATNO][ 16].d[ 10] =        -0.001745018794;
  BAS[ATNO][ 16].a[ 11] =       100.099321460000;     BAS[ATNO][ 16].d[ 11] =        -0.012807633392;
  BAS[ATNO][ 16].a[ 12] =        44.012139363000;     BAS[ATNO][ 16].d[ 12] =        -0.037132103679;
  BAS[ATNO][ 16].a[ 13] =        10.854010739000;     BAS[ATNO][ 16].d[ 13] =         0.268317254642;
  BAS[ATNO][ 16].a[ 14] =         5.435193018200;     BAS[ATNO][ 16].d[ 14] =         0.610868744573;
  BAS[ATNO][ 16].a[ 15] =         2.706280554200;     BAS[ATNO][ 16].d[ 15] =        -2.915936920664;
  BAS[ATNO][ 16].a[ 16] =         1.319563340800;     BAS[ATNO][ 16].d[ 16] =         4.322328690734;
  BAS[ATNO][ 16].a[ 17] =         0.580044559700;     BAS[ATNO][ 16].d[ 17] =        -2.965923261350;
  BAS[ATNO][ 16].a[ 18] =         0.243299762600;     BAS[ATNO][ 16].d[ 18] =         0.442628334724;
  BAS[ATNO][ 16].a[ 19] =         0.096823725100;     BAS[ATNO][ 16].d[ 19] =        -0.132531154834;
  BAS[ATNO][ 16].a[ 20] =         0.026906848500;     BAS[ATNO][ 16].d[ 20] =         0.025571405704;

  // Basis function  18 L = p
  InitBFNGauss(BAS[ATNO][ 17]);
  BAS[ATNO][ 17].l  = 1;
  BAS[ATNO][ 17].ng = 21;
  BAS[ATNO][ 17].a[  0] =     28609.335767000000;     BAS[ATNO][ 17].d[  0] =         0.000001965184;
  BAS[ATNO][ 17].a[  1] =      6773.123636400000;     BAS[ATNO][ 17].d[  1] =         0.000017463449;
  BAS[ATNO][ 17].a[  2] =      2199.801107900000;     BAS[ATNO][ 17].d[  2] =         0.000100441587;
  BAS[ATNO][ 17].a[  3] =       841.502015900000;     BAS[ATNO][ 17].d[  3] =         0.000438785815;
  BAS[ATNO][ 17].a[  4] =       356.921102880000;     BAS[ATNO][ 17].d[  4] =         0.001528931133;
  BAS[ATNO][ 17].a[  5] =       162.711743510000;     BAS[ATNO][ 17].d[  5] =         0.004208001129;
  BAS[ATNO][ 17].a[  6] =        78.004264994000;     BAS[ATNO][ 17].d[  6] =         0.008638959795;
  BAS[ATNO][ 17].a[  7] =        38.682579997000;     BAS[ATNO][ 17].d[  7] =         0.011940462974;
  BAS[ATNO][ 17].a[  8] =        19.589158685000;     BAS[ATNO][ 17].d[  8] =         0.008898532760;
  BAS[ATNO][ 17].a[  9] =         9.799086341700;     BAS[ATNO][ 17].d[  9] =         0.002557630252;
  BAS[ATNO][ 17].a[ 10] =       261.377868690000;     BAS[ATNO][ 17].d[ 10] =         0.000951802569;
  BAS[ATNO][ 17].a[ 11] =       100.099321460000;     BAS[ATNO][ 17].d[ 11] =         0.006985792019;
  BAS[ATNO][ 17].a[ 12] =        44.012139363000;     BAS[ATNO][ 17].d[ 12] =         0.020253324373;
  BAS[ATNO][ 17].a[ 13] =        10.854010739000;     BAS[ATNO][ 17].d[ 13] =        -0.146350889250;
  BAS[ATNO][ 17].a[ 14] =         5.435193018200;     BAS[ATNO][ 17].d[ 14] =        -0.333192079288;
  BAS[ATNO][ 17].a[ 15] =         2.706280554200;     BAS[ATNO][ 17].d[ 15] =         1.811167953956;
  BAS[ATNO][ 17].a[ 16] =         1.319563340800;     BAS[ATNO][ 17].d[ 16] =        -3.390100318019;
  BAS[ATNO][ 17].a[ 17] =         0.580044559700;     BAS[ATNO][ 17].d[ 17] =         4.055198015946;
  BAS[ATNO][ 17].a[ 18] =         0.243299762600;     BAS[ATNO][ 17].d[ 18] =        -2.948004606395;
  BAS[ATNO][ 17].a[ 19] =         0.096823725100;     BAS[ATNO][ 17].d[ 19] =         0.513887255645;
  BAS[ATNO][ 17].a[ 20] =         0.026906848500;     BAS[ATNO][ 17].d[ 20] =        -0.083817111916;

  // Basis function  19 L = p
  InitBFNGauss(BAS[ATNO][ 18]);
  BAS[ATNO][ 18].l  = 1;
  BAS[ATNO][ 18].ng = 21;
  BAS[ATNO][ 18].a[  0] =     28609.335767000000;     BAS[ATNO][ 18].d[  0] =        -0.000000823235;
  BAS[ATNO][ 18].a[  1] =      6773.123636400000;     BAS[ATNO][ 18].d[  1] =        -0.000007315610;
  BAS[ATNO][ 18].a[  2] =      2199.801107900000;     BAS[ATNO][ 18].d[  2] =        -0.000042075963;
  BAS[ATNO][ 18].a[  3] =       841.502015900000;     BAS[ATNO][ 18].d[  3] =        -0.000183811667;
  BAS[ATNO][ 18].a[  4] =       356.921102880000;     BAS[ATNO][ 18].d[  4] =        -0.000640484198;
  BAS[ATNO][ 18].a[  5] =       162.711743510000;     BAS[ATNO][ 18].d[  5] =        -0.001762772808;
  BAS[ATNO][ 18].a[  6] =        78.004264994000;     BAS[ATNO][ 18].d[  6] =        -0.003618944708;
  BAS[ATNO][ 18].a[  7] =        38.682579997000;     BAS[ATNO][ 18].d[  7] =        -0.005001976664;
  BAS[ATNO][ 18].a[  8] =        19.589158685000;     BAS[ATNO][ 18].d[  8] =        -0.003727682361;
  BAS[ATNO][ 18].a[  9] =         9.799086341700;     BAS[ATNO][ 18].d[  9] =        -0.001071416315;
  BAS[ATNO][ 18].a[ 10] =       261.377868690000;     BAS[ATNO][ 18].d[ 10] =        -0.000403717042;
  BAS[ATNO][ 18].a[ 11] =       100.099321460000;     BAS[ATNO][ 18].d[ 11] =        -0.002963096948;
  BAS[ATNO][ 18].a[ 12] =        44.012139363000;     BAS[ATNO][ 18].d[ 12] =        -0.008590659938;
  BAS[ATNO][ 18].a[ 13] =        10.854010739000;     BAS[ATNO][ 18].d[ 13] =         0.062076264519;
  BAS[ATNO][ 18].a[ 14] =         5.435193018200;     BAS[ATNO][ 18].d[ 14] =         0.141326914756;
  BAS[ATNO][ 18].a[ 15] =         2.706280554200;     BAS[ATNO][ 18].d[ 15] =        -0.799621545922;
  BAS[ATNO][ 18].a[ 16] =         1.319563340800;     BAS[ATNO][ 18].d[ 16] =         1.634687630579;
  BAS[ATNO][ 18].a[ 17] =         0.580044559700;     BAS[ATNO][ 18].d[ 17] =        -2.457113509605;
  BAS[ATNO][ 18].a[ 18] =         0.243299762600;     BAS[ATNO][ 18].d[ 18] =         3.052447619148;
  BAS[ATNO][ 18].a[ 19] =         0.096823725100;     BAS[ATNO][ 18].d[ 19] =        -2.347956928822;
  BAS[ATNO][ 18].a[ 20] =         0.026906848500;     BAS[ATNO][ 18].d[ 20] =         0.260939330827;

  // Basis function  20 L = p
  InitBFNGauss(BAS[ATNO][ 19]);
  BAS[ATNO][ 19].l  = 1;
  BAS[ATNO][ 19].ng = 21;
  BAS[ATNO][ 19].a[  0] =     28609.335767000000;     BAS[ATNO][ 19].d[  0] =         0.000000284319;
  BAS[ATNO][ 19].a[  1] =      6773.123636400000;     BAS[ATNO][ 19].d[  1] =         0.000002526581;
  BAS[ATNO][ 19].a[  2] =      2199.801107900000;     BAS[ATNO][ 19].d[  2] =         0.000014531711;
  BAS[ATNO][ 19].a[  3] =       841.502015900000;     BAS[ATNO][ 19].d[  3] =         0.000063482754;
  BAS[ATNO][ 19].a[  4] =       356.921102880000;     BAS[ATNO][ 19].d[  4] =         0.000221203048;
  BAS[ATNO][ 19].a[  5] =       162.711743510000;     BAS[ATNO][ 19].d[  5] =         0.000608806149;
  BAS[ATNO][ 19].a[  6] =        78.004264994000;     BAS[ATNO][ 19].d[  6] =         0.001249869400;
  BAS[ATNO][ 19].a[  7] =        38.682579997000;     BAS[ATNO][ 19].d[  7] =         0.001727525032;
  BAS[ATNO][ 19].a[  8] =        19.589158685000;     BAS[ATNO][ 19].d[  8] =         0.001287423957;
  BAS[ATNO][ 19].a[  9] =         9.799086341700;     BAS[ATNO][ 19].d[  9] =         0.000370033414;
  BAS[ATNO][ 19].a[ 10] =       261.377868690000;     BAS[ATNO][ 19].d[ 10] =         0.000136025717;
  BAS[ATNO][ 19].a[ 11] =       100.099321460000;     BAS[ATNO][ 19].d[ 11] =         0.000998366046;
  BAS[ATNO][ 19].a[ 12] =        44.012139363000;     BAS[ATNO][ 19].d[ 12] =         0.002894479439;
  BAS[ATNO][ 19].a[ 13] =        10.854010739000;     BAS[ATNO][ 19].d[ 13] =        -0.020915560925;
  BAS[ATNO][ 19].a[ 14] =         5.435193018200;     BAS[ATNO][ 19].d[ 14] =        -0.047617744380;
  BAS[ATNO][ 19].a[ 15] =         2.706280554200;     BAS[ATNO][ 19].d[ 15] =         0.267599356622;
  BAS[ATNO][ 19].a[ 16] =         1.319563340800;     BAS[ATNO][ 19].d[ 16] =        -0.551143148459;
  BAS[ATNO][ 19].a[ 17] =         0.580044559700;     BAS[ATNO][ 19].d[ 17] =         0.869207478051;
  BAS[ATNO][ 19].a[ 18] =         0.243299762600;     BAS[ATNO][ 19].d[ 18] =        -1.269746320663;
  BAS[ATNO][ 19].a[ 19] =         0.096823725100;     BAS[ATNO][ 19].d[ 19] =         1.522511835845;
  BAS[ATNO][ 19].a[ 20] =         0.026906848500;     BAS[ATNO][ 19].d[ 20] =        -1.444474434303;

  // Basis function  21 L = d
  InitBFNGauss(BAS[ATNO][ 20]);
  BAS[ATNO][ 20].l  = 2;
  BAS[ATNO][ 20].ng = 11;
  BAS[ATNO][ 20].a[  0] =       665.350573860000;     BAS[ATNO][ 20].d[  0] =         0.000798885995;
  BAS[ATNO][ 20].a[  1] =       200.179953660000;     BAS[ATNO][ 20].d[  1] =         0.007319271895;
  BAS[ATNO][ 20].a[  2] =        77.545085570000;     BAS[ATNO][ 20].d[  2] =         0.037513191314;
  BAS[ATNO][ 20].a[  3] =        33.677854345000;     BAS[ATNO][ 20].d[  3] =         0.126182453204;
  BAS[ATNO][ 20].a[  4] =        15.624928334000;     BAS[ATNO][ 20].d[  4] =         0.292603448224;
  BAS[ATNO][ 20].a[  5] =         7.442786742300;     BAS[ATNO][ 20].d[  5] =         0.452340636614;
  BAS[ATNO][ 20].a[  6] =         3.533607353500;     BAS[ATNO][ 20].d[  6] =         0.471129381263;
  BAS[ATNO][ 20].a[  7] =         1.636372514200;     BAS[ATNO][ 20].d[  7] =        -0.452019743277;
  BAS[ATNO][ 20].a[  8] =         0.678456847300;     BAS[ATNO][ 20].d[  8] =         0.254185684250;
  BAS[ATNO][ 20].a[  9] =         0.270000000000;     BAS[ATNO][ 20].d[  9] =        -0.107767293103;
  BAS[ATNO][ 20].a[ 10] =         0.090067366900;     BAS[ATNO][ 20].d[ 10] =         0.030075161328;

  // Basis function  22 L = d
  InitBFNGauss(BAS[ATNO][ 21]);
  BAS[ATNO][ 21].l  = 2;
  BAS[ATNO][ 21].ng = 11;
  BAS[ATNO][ 21].a[  0] =       665.350573860000;     BAS[ATNO][ 21].d[  0] =        -0.000284283618;
  BAS[ATNO][ 21].a[  1] =       200.179953660000;     BAS[ATNO][ 21].d[  1] =        -0.002604563238;
  BAS[ATNO][ 21].a[  2] =        77.545085570000;     BAS[ATNO][ 21].d[  2] =        -0.013349070841;
  BAS[ATNO][ 21].a[  3] =        33.677854345000;     BAS[ATNO][ 21].d[  3] =        -0.044902031730;
  BAS[ATNO][ 21].a[  4] =        15.624928334000;     BAS[ATNO][ 21].d[  4] =        -0.104122950401;
  BAS[ATNO][ 21].a[  5] =         7.442786742300;     BAS[ATNO][ 21].d[  5] =        -0.160965436177;
  BAS[ATNO][ 21].a[  6] =         3.533607353500;     BAS[ATNO][ 21].d[  6] =        -0.167651411818;
  BAS[ATNO][ 21].a[  7] =         1.636372514200;     BAS[ATNO][ 21].d[  7] =         1.466091957386;
  BAS[ATNO][ 21].a[  8] =         0.678456847300;     BAS[ATNO][ 21].d[  8] =        -0.519022758201;
  BAS[ATNO][ 21].a[  9] =         0.270000000000;     BAS[ATNO][ 21].d[  9] =         0.202596989781;
  BAS[ATNO][ 21].a[ 10] =         0.090067366900;     BAS[ATNO][ 21].d[ 10] =        -0.053725651664;

  // Basis function  23 L = d
  InitBFNGauss(BAS[ATNO][ 22]);
  BAS[ATNO][ 22].l  = 2;
  BAS[ATNO][ 22].ng = 11;
  BAS[ATNO][ 22].a[  0] =       665.350573860000;     BAS[ATNO][ 22].d[  0] =         0.000124356429;
  BAS[ATNO][ 22].a[  1] =       200.179953660000;     BAS[ATNO][ 22].d[  1] =         0.001139334680;
  BAS[ATNO][ 22].a[  2] =        77.545085570000;     BAS[ATNO][ 22].d[  2] =         0.005839389550;
  BAS[ATNO][ 22].a[  3] =        33.677854345000;     BAS[ATNO][ 22].d[  3] =         0.019641850582;
  BAS[ATNO][ 22].a[  4] =        15.624928334000;     BAS[ATNO][ 22].d[  4] =         0.045547325034;
  BAS[ATNO][ 22].a[  5] =         7.442786742300;     BAS[ATNO][ 22].d[  5] =         0.070412382791;
  BAS[ATNO][ 22].a[  6] =         3.533607353500;     BAS[ATNO][ 22].d[  6] =         0.073337081952;
  BAS[ATNO][ 22].a[  7] =         1.636372514200;     BAS[ATNO][ 22].d[  7] =        -1.097162526942;
  BAS[ATNO][ 22].a[  8] =         0.678456847300;     BAS[ATNO][ 22].d[  8] =         1.800304729857;
  BAS[ATNO][ 22].a[  9] =         0.270000000000;     BAS[ATNO][ 22].d[  9] =        -0.380353267739;
  BAS[ATNO][ 22].a[ 10] =         0.090067366900;     BAS[ATNO][ 22].d[ 10] =         0.088671365831;

  // Basis function  24 L = d
  InitBFNGauss(BAS[ATNO][ 23]);
  BAS[ATNO][ 23].l  = 2;
  BAS[ATNO][ 23].ng = 11;
  BAS[ATNO][ 23].a[  0] =       665.350573860000;     BAS[ATNO][ 23].d[  0] =        -0.000054878114;
  BAS[ATNO][ 23].a[  1] =       200.179953660000;     BAS[ATNO][ 23].d[  1] =        -0.000502784928;
  BAS[ATNO][ 23].a[  2] =        77.545085570000;     BAS[ATNO][ 23].d[  2] =        -0.002576904842;
  BAS[ATNO][ 23].a[  3] =        33.677854345000;     BAS[ATNO][ 23].d[  3] =        -0.008667888901;
  BAS[ATNO][ 23].a[  4] =        15.624928334000;     BAS[ATNO][ 23].d[  4] =        -0.020099895958;
  BAS[ATNO][ 23].a[  5] =         7.442786742300;     BAS[ATNO][ 23].d[  5] =        -0.031072770293;
  BAS[ATNO][ 23].a[  6] =         3.533607353500;     BAS[ATNO][ 23].d[  6] =        -0.032363431134;
  BAS[ATNO][ 23].a[  7] =         1.636372514200;     BAS[ATNO][ 23].d[  7] =         0.572545611917;
  BAS[ATNO][ 23].a[  8] =         0.678456847300;     BAS[ATNO][ 23].d[  8] =        -1.465933269672;
  BAS[ATNO][ 23].a[  9] =         0.270000000000;     BAS[ATNO][ 23].d[  9] =         1.750066312491;
  BAS[ATNO][ 23].a[ 10] =         0.090067366900;     BAS[ATNO][ 23].d[ 10] =        -0.230827110519;

  // Basis function  25 L = d
  InitBFNGauss(BAS[ATNO][ 24]);
  BAS[ATNO][ 24].l  = 2;
  BAS[ATNO][ 24].ng = 11;
  BAS[ATNO][ 24].a[  0] =       665.350573860000;     BAS[ATNO][ 24].d[  0] =         0.000020231306;
  BAS[ATNO][ 24].a[  1] =       200.179953660000;     BAS[ATNO][ 24].d[  1] =         0.000185356149;
  BAS[ATNO][ 24].a[  2] =        77.545085570000;     BAS[ATNO][ 24].d[  2] =         0.000949998959;
  BAS[ATNO][ 24].a[  3] =        33.677854345000;     BAS[ATNO][ 24].d[  3] =         0.003195494572;
  BAS[ATNO][ 24].a[  4] =        15.624928334000;     BAS[ATNO][ 24].d[  4] =         0.007410005962;
  BAS[ATNO][ 24].a[  5] =         7.442786742300;     BAS[ATNO][ 24].d[  5] =         0.011455253978;
  BAS[ATNO][ 24].a[  6] =         3.533607353500;     BAS[ATNO][ 24].d[  6] =         0.011931067612;
  BAS[ATNO][ 24].a[  7] =         1.636372514200;     BAS[ATNO][ 24].d[  7] =        -0.212218524667;
  BAS[ATNO][ 24].a[  8] =         0.678456847300;     BAS[ATNO][ 24].d[  8] =         0.610299974000;
  BAS[ATNO][ 24].a[  9] =         0.270000000000;     BAS[ATNO][ 24].d[  9] =        -1.099615927293;
  BAS[ATNO][ 24].a[ 10] =         0.090067366900;     BAS[ATNO][ 24].d[ 10] =         1.363089559931;

  // Basis function  26 L = f
  InitBFNGauss(BAS[ATNO][ 25]);
  BAS[ATNO][ 25].l  = 3;
  BAS[ATNO][ 25].ng = 4;
  BAS[ATNO][ 25].a[  0] =        14.180116992000;     BAS[ATNO][ 25].d[  0] =         0.494355080789;
  BAS[ATNO][ 25].a[  1] =         4.539318368000;     BAS[ATNO][ 25].d[  1] =         0.654863680611;
  BAS[ATNO][ 25].a[  2] =         0.413000000000;     BAS[ATNO][ 25].d[  2] =        -0.000456279205;
  BAS[ATNO][ 25].a[  3] =         0.955700000000;     BAS[ATNO][ 25].d[  3] =         0.007540235623;

  // Basis function  27 L = f
  InitBFNGauss(BAS[ATNO][ 26]);
  BAS[ATNO][ 26].l  = 3;
  BAS[ATNO][ 26].ng = 4;
  BAS[ATNO][ 26].a[  0] =        14.180116992000;     BAS[ATNO][ 26].d[  0] =        -0.580594195981;
  BAS[ATNO][ 26].a[  1] =         4.539318368000;     BAS[ATNO][ 26].d[  1] =         0.319353233356;
  BAS[ATNO][ 26].a[  2] =         0.413000000000;     BAS[ATNO][ 26].d[  2] =        -0.251545895573;
  BAS[ATNO][ 26].a[  3] =         0.955700000000;     BAS[ATNO][ 26].d[  3] =         0.940207983543;

  // Basis function  28 L = f
  InitBFNGauss(BAS[ATNO][ 27]);
  BAS[ATNO][ 27].l  = 3;
  BAS[ATNO][ 27].ng = 4;
  BAS[ATNO][ 27].a[  0] =        14.180116992000;     BAS[ATNO][ 27].d[  0] =        -0.797967885895;
  BAS[ATNO][ 27].a[  1] =         4.539318368000;     BAS[ATNO][ 27].d[  1] =         0.865401302377;
  BAS[ATNO][ 27].a[  2] =         0.413000000000;     BAS[ATNO][ 27].d[  2] =        -0.297066963635;
  BAS[ATNO][ 27].a[  3] =         0.955700000000;     BAS[ATNO][ 27].d[  3] =        -0.514619427773;

  // Basis function  29 L = f
  InitBFNGauss(BAS[ATNO][ 28]);
  BAS[ATNO][ 28].l  = 3;
  BAS[ATNO][ 28].ng = 4;
  BAS[ATNO][ 28].a[  0] =        14.180116992000;     BAS[ATNO][ 28].d[  0] =        -0.380043446525;
  BAS[ATNO][ 28].a[  1] =         4.539318368000;     BAS[ATNO][ 28].d[  1] =         0.501930584534;
  BAS[ATNO][ 28].a[  2] =         0.413000000000;     BAS[ATNO][ 28].d[  2] =         1.335983230551;
  BAS[ATNO][ 28].a[  3] =         0.955700000000;     BAS[ATNO][ 28].d[  3] =        -0.991782693502;

  // Basis function  30 L = g
  InitBFNGauss(BAS[ATNO][ 29]);
  BAS[ATNO][ 29].l  = 4;
  BAS[ATNO][ 29].ng = 1;
  BAS[ATNO][ 29].a[  0] =         0.739500000000;     BAS[ATNO][ 29].d[  0] =         1.000000000000;

-------
TIMINGS
-------

Total SCF time: 0 days 0 hours 0 min 2 sec 

Total time                  ....       2.541 sec
Sum of individual times     ....       2.343 sec  ( 92.2%)

Fock matrix formation       ....       1.557 sec  ( 61.3%)
  XC integration            ....       0.101 sec  (  6.5% of F)
    Basis function eval.    ....       0.018 sec  ( 17.5% of XC)
    Density eval.           ....       0.009 sec  (  8.9% of XC)
    XC-Functional eval.     ....       0.005 sec  (  5.4% of XC)
    XC-Potential eval.      ....       0.021 sec  ( 20.4% of XC)
Diagonalization             ....       0.007 sec  (  0.3%)
Density matrix formation    ....       0.003 sec  (  0.1%)
Population analysis         ....       0.001 sec  (  0.1%)
Initial guess               ....       0.075 sec  (  3.0%)
Orbital Transformation      ....       0.000 sec  (  0.0%)
Orbital Orthonormalization  ....       0.000 sec  (  0.0%)
DIIS solution               ....       0.001 sec  (  0.0%)
SOSCF solution              ....       0.002 sec  (  0.1%)
Grid generation             ....       0.697 sec  ( 27.4%)

-------------------------   --------------------
FINAL SINGLE POINT ENERGY     -1317.994096680046
-------------------------   --------------------


                            ***************************************
                            *     ORCA property calculations      *
                            ***************************************

                                    ---------------------
                                    Active property flags
                                    ---------------------
   (+) Dipole Moment


------------------------------------------------------------------------------
                       ORCA ELECTRIC PROPERTIES CALCULATION
------------------------------------------------------------------------------

Dipole Moment Calculation                       ... on
Quadrupole Moment Calculation                   ... off
Polarizability Calculation                      ... off
GBWName                                         ... Kr_137_.gbw
Electron density file                           ... Kr_137_.scfp
The origin for moment calculation is the CENTER OF MASS  = ( 0.000000,  0.000000  0.000000)

-------------
DIPOLE MOMENT
-------------
                                X             Y             Z
Electronic contribution:     -0.00000       0.00000       0.00000
Nuclear contribution   :      0.00000       0.00000       0.00000
                        -----------------------------------------
Total Dipole Moment    :     -0.00000       0.00000       0.00000
                        -----------------------------------------
Magnitude (a.u.)       :      0.00000
Magnitude (Debye)      :      0.00000



--------------------
Rotational spectrum 
--------------------
 
Rotational constants in cm-1:     0.000000     0.000000     0.000000 
Rotational constants in MHz :     0.000000     0.000000     0.000000 

 Dipole components along the rotational axes: 
x,y,z [a.u.] :    -0.000000     0.000000     0.000000 
x,y,z [Debye]:    -0.000000     0.000000     0.000000 

 

Timings for individual modules:

Sum of individual times         ...        3.834 sec (=   0.064 min)
GTO integral calculation        ...        0.556 sec (=   0.009 min)  14.5 %
Relativistic integrals          ...        0.477 sec (=   0.008 min)  12.4 %
SCF iterations                  ...        2.800 sec (=   0.047 min)  73.0 %
                             ****ORCA TERMINATED NORMALLY****
TOTAL RUN TIME: 0 days 0 hours 0 minutes 4 seconds 155 msec
