
                                 *****************
                                 * O   R   C   A *
                                 *****************

                                            #,                                       
                                            ###                                      
                                            ####                                     
                                            #####                                    
                                            ######                                   
                                           ########,                                 
                                     ,,################,,,,,                         
                               ,,#################################,,                 
                          ,,##########################################,,             
                       ,#########################################, ''#####,          
                    ,#############################################,,   '####,        
                  ,##################################################,,,,####,       
                ,###########''''           ''''###############################       
              ,#####''   ,,,,##########,,,,          '''####'''          '####       
            ,##' ,,,,###########################,,,                        '##       
           ' ,,###''''                  '''############,,,                           
         ,,##''                                '''############,,,,        ,,,,,,###''
      ,#''                                            '''#######################'''  
     '                                                          ''''####''''         
             ,#######,   #######,   ,#######,      ##                                
            ,#'     '#,  ##    ##  ,#'     '#,    #''#        ######   ,####,        
            ##       ##  ##   ,#'  ##            #'  '#       #        #'  '#        
            ##       ##  #######   ##           ,######,      #####,   #    #        
            '#,     ,#'  ##    ##  '#,     ,#' ,#      #,         ##   #,  ,#        
             '#######'   ##     ##  '#######'  #'      '#     #####' # '####'        



                  #######################################################
                  #                        -***-                        #
                  #          Department of theory and spectroscopy      #
                  #    Directorship and core code : Frank Neese         #
                  #        Max Planck Institute fuer Kohlenforschung    #
                  #                Kaiser Wilhelm Platz 1               #
                  #                 D-45470 Muelheim/Ruhr               #
                  #                      Germany                        #
                  #                                                     #
                  #                  All rights reserved                #
                  #                        -***-                        #
                  #######################################################


                         Program Version 5.0.1 -  RELEASE  -


 With contributions from (in alphabetic order):
   Daniel Aravena         : Magnetic Suceptibility
   Michael Atanasov       : Ab Initio Ligand Field Theory (pilot matlab implementation)
   Alexander A. Auer      : GIAO ZORA, VPT2 properties, NMR spectrum
   Ute Becker             : Parallelization
   Giovanni Bistoni       : ED, misc. LED, open-shell LED, HFLD
   Martin Brehm           : Molecular dynamics
   Dmytro Bykov           : SCF Hessian
   Vijay G. Chilkuri      : MRCI spin determinant printing, contributions to CSF-ICE
   Dipayan Datta          : RHF DLPNO-CCSD density
   Achintya Kumar Dutta   : EOM-CC, STEOM-CC
   Dmitry Ganyushin       : Spin-Orbit,Spin-Spin,Magnetic field MRCI
   Miquel Garcia          : C-PCM and meta-GGA Hessian, CC/C-PCM, Gaussian charge scheme
   Yang Guo               : DLPNO-NEVPT2, F12-NEVPT2, CIM, IAO-localization
   Andreas Hansen         : Spin unrestricted coupled pair/coupled cluster methods
   Benjamin Helmich-Paris : MC-RPA, TRAH-SCF, COSX integrals
   Lee Huntington         : MR-EOM, pCC
   Robert Izsak           : Overlap fitted RIJCOSX, COSX-SCS-MP3, EOM
   Marcus Kettner         : VPT2
   Christian Kollmar      : KDIIS, OOCD, Brueckner-CCSD(T), CCSD density, CASPT2, CASPT2-K
   Simone Kossmann        : Meta GGA functionals, TD-DFT gradient, OOMP2, MP2 Hessian
   Martin Krupicka        : Initial AUTO-CI
   Lucas Lang             : DCDCAS
   Marvin Lechner         : AUTO-CI (C++ implementation), FIC-MRCC
   Dagmar Lenk            : GEPOL surface, SMD
   Dimitrios Liakos       : Extrapolation schemes; Compound Job, initial MDCI parallelization
   Dimitrios Manganas     : Further ROCIS development; embedding schemes
   Dimitrios Pantazis     : SARC Basis sets
   Anastasios Papadopoulos: AUTO-CI, single reference methods and gradients
   Taras Petrenko         : DFT Hessian,TD-DFT gradient, ASA, ECA, R-Raman, ABS, FL, XAS/XES, NRVS
   Peter Pinski           : DLPNO-MP2, DLPNO-MP2 Gradient
   Christoph Reimann      : Effective Core Potentials
   Marius Retegan         : Local ZFS, SOC
   Christoph Riplinger    : Optimizer, TS searches, QM/MM, DLPNO-CCSD(T), (RO)-DLPNO pert. Triples
   Tobias Risthaus        : Range-separated hybrids, TD-DFT gradient, RPA, STAB
   Michael Roemelt        : Original ROCIS implementation
   Masaaki Saitow         : Open-shell DLPNO-CCSD energy and density
   Barbara Sandhoefer     : DKH picture change effects
   Avijit Sen             : IP-ROCIS
   Kantharuban Sivalingam : CASSCF convergence, NEVPT2, FIC-MRCI
   Bernardo de Souza      : ESD, SOC TD-DFT
   Georgi Stoychev        : AutoAux, RI-MP2 NMR, DLPNO-MP2 response
   Willem Van den Heuvel  : Paramagnetic NMR
   Boris Wezisla          : Elementary symmetry handling
   Frank Wennmohs         : Technical directorship


 We gratefully acknowledge several colleagues who have allowed us to
 interface, adapt or use parts of their codes:
   Stefan Grimme, W. Hujo, H. Kruse, P. Pracht,  : VdW corrections, initial TS optimization,
                  C. Bannwarth, S. Ehlert          DFT functionals, gCP, sTDA/sTD-DF
   Ed Valeev, F. Pavosevic, A. Kumar             : LibInt (2-el integral package), F12 methods
   Garnet Chan, S. Sharma, J. Yang, R. Olivares  : DMRG
   Ulf Ekstrom                                   : XCFun DFT Library
   Mihaly Kallay                                 : mrcc  (arbitrary order and MRCC methods)
   Jiri Pittner, Ondrej Demel                    : Mk-CCSD
   Frank Weinhold                                : gennbo (NPA and NBO analysis)
   Christopher J. Cramer and Donald G. Truhlar   : smd solvation model
   Lars Goerigk                                  : TD-DFT with DH, B97 family of functionals
   V. Asgeirsson, H. Jonsson                     : NEB implementation
   FAccTs GmbH                                   : IRC, NEB, NEB-TS, DLPNO-Multilevel, CI-OPT
                                                   MM, QMMM, 2- and 3-layer-ONIOM, Crystal-QMMM,
                                                   LR-CPCM, SF, NACMEs, symmetry and pop. for TD-DFT,
                                                   nearIR, NL-DFT gradient (VV10), updates on ESD,
                                                   ML-optimized integration grids
   S Lehtola, MJT Oliveira, MAL Marques          : LibXC Library
   Liviu Ungur et al                             : ANISO software


 Your calculation uses the libint2 library for the computation of 2-el integrals
 For citations please refer to: http://libint.valeyev.net

 Your ORCA version has been built with support for libXC version: 5.1.0
 For citations please refer to: https://tddft.org/programs/libxc/

 This ORCA versions uses:
   CBLAS   interface :  Fast vector & matrix operations
   LAPACKE interface :  Fast linear algebra routines
   SCALAPACK package :  Parallel linear algebra routines
   Shared memory     :  Shared parallel matrices
   BLAS/LAPACK       :  OpenBLAS 0.3.15  USE64BITINT DYNAMIC_ARCH NO_AFFINITY Haswell SINGLE_THREADED
        Core in use  :  Haswell
   Copyright (c) 2011-2014, The OpenBLAS Project


SCAN-COORDS

Reading of a custom basis requested
Basis file         : I_ano-rcc-vqzp.basis
READING GTO-BASIS: IODINE
Basis successfully read

================================================================================

----- Orbital basis set information -----
================================================================================
                                        WARNINGS
                       Please study these warnings very carefully!
================================================================================


INFO   : the flag for use of the SHARK integral package has been found!

================================================================================
                                       INPUT FILE
================================================================================
NAME = I_ano-rcc-vqzp_pbe.inp
|  1> !uks pbe nori verytightscf soscf notrah defgrid3
|  2> 
|  3> %pal
|  4>   nprocs 32
|  5> end
|  6> %coords
|  7>   charge 0
|  8>   mult 2
|  9>   units bohrs
| 10>   coords
| 11>     I 0.0 0.0 0.0
| 12>   end
| 13> end
| 14> %basis
| 15>   gtoname "I_ano-rcc-vqzp.basis"
| 16>   delECP I
| 17> end
| 18> %rel
| 19>   method zora
| 20>   modelpot 1, 0, 0, 0
| 21>   c 137.035999084
| 22> endd                         ****END OF INPUT****
================================================================================

                       ****************************
                       * Single Point Calculation *
                       ****************************

---------------------------------
CARTESIAN COORDINATES (ANGSTROEM)
---------------------------------
  I      0.000000    0.000000    0.000000

----------------------------
CARTESIAN COORDINATES (A.U.)
----------------------------
  NO LB      ZA    FRAG     MASS         X           Y           Z
   0 I    53.0000    0   126.900    0.000000    0.000000    0.000000

--------------------------------
INTERNAL COORDINATES (ANGSTROEM)
--------------------------------
 I      0   0   0     0.000000000000     0.00000000     0.00000000

---------------------------
INTERNAL COORDINATES (A.U.)
---------------------------
 I      0   0   0     0.000000000000     0.00000000     0.00000000

---------------------
BASIS SET INFORMATION
---------------------
There are 1 groups of distinct atoms

 Group   1 Type I   : 176s133p65d15f6g contracted to 8s7p5d3f2g pattern {2222222222222222/19191919191919/1313131313/555/33}

Atom   0I    basis set group =>   1


           ************************************************************
           *        Program running with 32 parallel MPI-processes    *
           *              working on a common directory               *
           ************************************************************
------------------------------------------------------------------------------
                           ORCA GTO INTEGRAL CALCULATION
------------------------------------------------------------------------------
------------------------------------------------------------------------------
                   ___                                                        
                  /   \      - P O W E R E D   B Y -                         
                 /     \                                                     
                 |  |  |   _    _      __       _____    __    __             
                 |  |  |  | |  | |    /  \     |  _  \  |  |  /  |          
                  \  \/   | |  | |   /    \    | | | |  |  | /  /          
                 / \  \   | |__| |  /  /\  \   | |_| |  |  |/  /          
                |  |  |   |  __  | /  /__\  \  |    /   |      \           
                |  |  |   | |  | | |   __   |  |    \   |  |\   \          
                \     /   | |  | | |  |  |  |  | |\  \  |  | \   \       
                 \___/    |_|  |_| |__|  |__|  |_| \__\ |__|  \__/        
                                                                              
                      - O R C A' S   B I G   F R I E N D -                    
                                      &                                       
                       - I N T E G R A L  F E E D E R -                       
                                                                              
 v1 FN, 2020, v2 2021                                                         
------------------------------------------------------------------------------


Reading SHARK input file I_ano-rcc-vqzp_pbe.SHARKINP.tmp ... ok
----------------------
SHARK INTEGRAL PACKAGE
----------------------

Number of atoms                             ...      1
Number of basis functions                   ...     93
Number of shells                            ...     25
Maximum angular momentum                    ...      4
Integral batch strategy                     ... SHARK/LIBINT Hybrid
RI-J (if used) integral strategy            ... SPLIT-RIJ (Revised 2003 algorithm where possible)
Printlevel                                  ...      1
Contraction scheme used                     ... SEGMENTED contraction
Coulomb Range Separation                    ... NOT USED
Exchange Range Separation                   ... NOT USED
Finite Nucleus Model                        ... NOT USED
Auxiliary Coulomb fitting basis             ... NOT available
Auxiliary J/K fitting basis                 ... NOT available
Auxiliary Correlation fitting basis         ... NOT available
Auxiliary 'external' fitting basis          ... NOT available
Integral threshold                          ...     1.000000e-12
Primitive cut-off                           ...     1.000000e-14
Primitive pair pre-selection threshold      ...     1.000000e-14

Calculating pre-screening integrals         ... done ( 23.2 sec) Dimension = 25
Organizing shell pair data                  ... done (  0.4 sec)
Shell pair information
Total number of shell pairs                 ...       325
Shell pairs after pre-screening             ...       325
Total number of primitive shell pairs       ...     81681
Primitive shell pairs kept                  ...     81680
          la=0 lb=0:     36 shell pairs
          la=1 lb=0:     56 shell pairs
          la=1 lb=1:     28 shell pairs
          la=2 lb=0:     40 shell pairs
          la=2 lb=1:     35 shell pairs
          la=2 lb=2:     15 shell pairs
          la=3 lb=0:     24 shell pairs
          la=3 lb=1:     21 shell pairs
          la=3 lb=2:     15 shell pairs
          la=3 lb=3:      6 shell pairs
          la=4 lb=0:     16 shell pairs
          la=4 lb=1:     14 shell pairs
          la=4 lb=2:     10 shell pairs
          la=4 lb=3:      6 shell pairs
          la=4 lb=4:      3 shell pairs

Calculating one electron integrals          ... done (  0.2 sec)
Calculating Nuclear repulsion               ... done (  0.0 sec) ENN=      0.000000000000 Eh

SHARK setup successfully completed in  24.2 seconds

Maximum memory used throughout the entire GTOINT-calculation: 313.8 MB


           ************************************************************
           *        Program running with 32 parallel MPI-processes    *
           *              working on a common directory               *
           ************************************************************
------------------------------------------------------------------------------
                          ORCA RELATIVISTIC HAMILTONIAN
------------------------------------------------------------------------------

Relativistic Method            ... ZORA(MP)
Treatment of potential         ... Van Wuellen
Nucleus model                  ... Point Nucleus
Speed of light used            ... 137.03599908400000


            *************************************************
            *         ZERO ORDER REGULAR APPROXIMATION      *
            *                     ZORA(MP)                  *
            *            Programmed by FN according to      *
            *                   C. van Wuellen              *
            *       J. Chem. Phys. (1998) vol 109, 392-399  *
            *************************************************

Terms included in model potential: +V(e,N)
Basis function cutoff value   ... 1.000000e-12
Loading the fitted atomic densities  (DKH4)  ... done
Calculating the cutoffs                      ... done
Number of fit functions                      ... 29
Setting up the integration grid ... done

Maximum memory used throughout the entire REL-calculation: 12.1 MB


           ************************************************************
           *        Program running with 32 parallel MPI-processes    *
           *              working on a common directory               *
           ************************************************************
-------------------------------------------------------------------------------
                                 ORCA SCF
-------------------------------------------------------------------------------

------------
SCF SETTINGS
------------
Hamiltonian:
 Density Functional     Method          .... DFT(GTOs)
 Exchange Functional    Exchange        .... PBE
   PBE kappa parameter   XKappa         ....  0.804000
   PBE mue parameter    XMuePBE         ....  0.219520
 Correlation Functional Correlation     .... PBE
   PBE beta parameter  CBetaPBE         ....  0.066725
 LDA part of GGA corr.  LDAOpt          .... PW91-LDA
 Gradients option       PostSCFGGA      .... off
   Density functional embedding theory  .... OFF
   NL short-range parameter             ....  6.400000

Relativistic Settings:
 Scalar relativistic method             .... ZORA
 Speed of light used       Velit        ....       137.035999
Orbital energies will be scaled


General Settings:
 Integral files         IntName         .... I_ano-rcc-vqzp_pbe
 Hartree-Fock type      HFTyp           .... UHF
 Total Charge           Charge          ....    0
 Multiplicity           Mult            ....    2
 Number of Electrons    NEL             ....   53
 Basis Dimension        Dim             ....   93
 Nuclear Repulsion      ENuc            ....      0.0000000000 Eh

Convergence Acceleration:
 DIIS                   CNVDIIS         .... on
   Start iteration      DIISMaxIt       ....    12
   Startup error        DIISStart       ....  0.200000
   # of expansion vecs  DIISMaxEq       ....     5
   Bias factor          DIISBfac        ....   1.050
   Max. coefficient     DIISMaxC        ....  10.000
 Trust-Rad. Augm. Hess. CNVTRAH         .... off
 SOSCF                  CNVSOSCF        .... on
   Start iteration      SOSCFMaxIt      ....   150
   Startup grad/error   SOSCFStart      ....  0.003300
 Level Shifting         CNVShift        .... on
   Level shift para.    LevelShift      ....    0.2500
   Turn off err/grad.   ShiftErr        ....    0.0010
 Zerner damping         CNVZerner       .... off
 Static damping         CNVDamp         .... on
   Fraction old density DampFac         ....    0.7000
   Max. Damping (<1)    DampMax         ....    0.9800
   Min. Damping (>=0)   DampMin         ....    0.0000
   Turn off err/grad.   DampErr         ....    0.1000
 Fernandez-Rico         CNVRico         .... off

SCF Procedure:
 Maximum # iterations   MaxIter         ....   125
 SCF integral mode      SCFMode         .... Direct
   Integral package                     .... SHARK and LIBINT hybrid scheme
 Reset frequency        DirectResetFreq ....    20
 Integral Threshold     Thresh          ....  1.000e-12 Eh
 Primitive CutOff       TCut            ....  1.000e-14 Eh

Convergence Tolerance:
 Convergence Check Mode ConvCheckMode   .... Total+1el-Energy
 Convergence forced     ConvForced      .... 0
 Energy Change          TolE            ....  1.000e-09 Eh
 1-El. energy change                    ....  1.000e-06 Eh
 Orbital Gradient       TolG            ....  2.000e-06
 Orbital Rotation angle TolX            ....  2.000e-06
 DIIS Error             TolErr          ....  1.000e-08


Diagonalization of the overlap matrix:
Smallest eigenvalue                        ... 1.000e+00
Time for diagonalization                   ...    0.002 sec
Threshold for overlap eigenvalues          ... 1.000e-08
Number of eigenvalues below threshold      ... 0
Time for construction of square roots      ...    0.041 sec
Total time needed                          ...    0.044 sec

Time for model grid setup =    0.085 sec

------------------------------
INITIAL GUESS: MODEL POTENTIAL
------------------------------
Loading ZORA relativistic densities                ... done
Calculating cut-offs                               ... done
Initializing the effective Hamiltonian             ... done
Setting up the integral package (SHARK)            ... done
Starting the Coulomb interaction                   ... done (   0.3 sec)
Reading the grid                                   ... done
Mapping shells                                     ... done
Starting the XC term evaluation                    ... done (   0.0 sec)
  promolecular density results
     # of electrons  =     53.000322644
     EX              =   -188.596870443
     EC              =     -2.831271477
     EX+EC           =   -191.428141920
Transforming the Hamiltonian                       ... done (   0.0 sec)
Diagonalizing the Hamiltonian                      ... done (   0.0 sec)
Back transforming the eigenvectors                 ... done (   0.0 sec)
Now organizing SCF variables                       ... done
                      ------------------
                      INITIAL GUESS DONE (   0.5 sec)
                      ------------------
-------------------
DFT GRID GENERATION
-------------------

General Integration Accuracy     IntAcc      ... 4.959
Radial Grid Type                 RadialGrid  ... OptM3 with GC (2021)
Angular Grid (max. ang.)         AngularGrid ... 6 (Lebedev-590)
Angular grid pruning method      GridPruning ... 4 (adaptive)
Weight generation scheme         WeightScheme... Becke
Basis function cutoff            BFCut       ... 1.0000e-12
Integration weight cutoff        WCut        ... 1.0000e-14
Angular grids for H and He will be reduced by one unit
Partially contracted basis set               ... off
Rotationally invariant grid construction     ... off

Total number of grid points                  ...    32866
Total number of batches                      ...      514
Average number of points per batch           ...       63
Average number of grid points per atom       ...    32866
Time for grid setup =    0.975 sec

--------------
SCF ITERATIONS
--------------
ITER       Energy         Delta-E        Max-DP      RMS-DP      [F,P]     Damp
               ***  Starting incremental Fock matrix formation  ***
  0  -7240.2208454941   0.000000000000 0.00967905  0.00025303  0.4823749 0.7000
  1  -7240.2390514614  -0.018205967242 0.00781032  0.00015564  0.3371676 0.7000
  2  -7240.2486624246  -0.009610963199 0.00481293  0.00009010  0.2357001 0.7000
                               ***Turning on DIIS***
  3  -7240.2547712621  -0.006108837544 0.00331030  0.00005848  0.1647931 0.7000
  4  -7240.2589236966  -0.004152434501 0.00216935  0.00004080  0.1152285 0.7000
  5  -7240.2617905458  -0.002866849149 0.00501408  0.00009546  0.0806330 0.0000
                      *** Initiating the SOSCF procedure ***
                           *** Shutting down DIIS ***
                      *** Re-Reading the Fockian *** 
                      *** Removing any level shift *** 
ITER      Energy       Delta-E        Grad      Rot      Max-DP    RMS-DP
  6  -7240.26844180  -0.0066512508  0.000278  0.000278  0.000428  0.000007
               *** Restarting incremental Fock matrix formation ***
  7  -7240.26844236  -0.0000005682  0.000137  0.000205  0.000226  0.000004
  8  -7240.26844236   0.0000000004  0.000145  0.000097  0.000107  0.000002
  9  -7240.26844251  -0.0000001479  0.000004  0.000006  0.000006  0.000000
 10  -7240.26844251  -0.0000000002  0.000002  0.000001  0.000002  0.000000
                  ***Gradient check signals convergence***
              ***Rediagonalizing the Fockian in SOSCF/NRSCF***

               *****************************************************
               *                     SUCCESS                       *
               *           SCF CONVERGED AFTER  11 CYCLES          *
               *****************************************************


----------------
TOTAL SCF ENERGY
----------------

Total Energy       :        -7240.26844251 Eh         -197017.72051 eV

Components:
Nuclear Repulsion  :            0.00000000 Eh               0.00000 eV
Electronic Energy  :        -7240.26844251 Eh         -197017.72051 eV
One Electron Energy:        -9884.80653120 Eh         -268979.26036 eV
Two Electron Energy:         2644.53808868 Eh           71961.53985 eV

Virial components:
Potential Energy   :       -15044.12123073 Eh         -409371.35073 eV
Kinetic Energy     :         7803.85278822 Eh          212353.63022 eV
Virial Ratio       :            1.92778127


DFT components:
N(Alpha)           :       27.000000002456 electrons
N(Beta)            :       26.000000002592 electrons
N(Total)           :       53.000000005047 electrons
E(X)               :     -180.377481340888 Eh       
E(C)               :       -2.837093048158 Eh       
E(XC)              :     -183.214574389045 Eh       
DFET-embed. en.    :        0.000000000000 Eh       

---------------
SCF CONVERGENCE
---------------

  Last Energy change         ...   -2.2737e-11  Tolerance :   1.0000e-09
  Last MAX-Density change    ...    1.7687e-07  Tolerance :   1.0000e-08
  Last RMS-Density change    ...    3.9818e-09  Tolerance :   1.0000e-09
  Last Orbital Gradient      ...    1.9175e-07  Tolerance :   2.0000e-06
  Last Orbital Rotation      ...    1.7047e-07  Tolerance :   2.0000e-06

             **** THE GBW FILE WAS UPDATED (I_ano-rcc-vqzp_pbe.gbw) ****
             **** DENSITY I_ano-rcc-vqzp_pbe.scfp WAS UPDATED ****
             **** ENERGY FILE WAS UPDATED (I_ano-rcc-vqzp_pbe.en.tmp) ****
----------------------
UHF SPIN CONTAMINATION
----------------------

Warning: in a DFT calculation there is little theoretical justification to 
         calculate <S**2> as in Hartree-Fock theory. We will do it anyways
         but you should keep in mind that the values have only limited relevance

Expectation value of <S**2>     :     0.752899
Ideal value S*(S+1) for S=0.5   :     0.750000
Deviation                       :     0.002899

             **** THE GBW FILE WAS UPDATED (I_ano-rcc-vqzp_pbe.gbw) ****
             **** DENSITY I_ano-rcc-vqzp_pbe.scfp WAS UPDATED ****
----------------
ORBITAL ENERGIES
----------------
                 SPIN UP ORBITALS
  NO   OCC          E(Eh)            E(eV) 
   0   1.0000   -1257.005190    -34204.8502 
   1   1.0000    -188.837264     -5138.5232 
   2   1.0000    -170.491059     -4639.2976 
   3   1.0000    -170.487443     -4639.1992 
   4   1.0000    -170.487443     -4639.1992 
   5   1.0000     -37.899883     -1031.3083 
   6   1.0000     -31.854000      -866.7914 
   7   1.0000     -31.846304      -866.5820 
   8   1.0000     -31.846304      -866.5820 
   9   1.0000     -22.424965      -610.2143 
  10   1.0000     -22.423231      -610.1671 
  11   1.0000     -22.423231      -610.1671 
  12   1.0000     -22.418007      -610.0250 
  13   1.0000     -22.418007      -610.0250 
  14   1.0000      -6.630953      -180.4374 
  15   1.0000      -4.727018      -128.6287 
  16   1.0000      -4.709806      -128.1603 
  17   1.0000      -4.709806      -128.1603 
  18   1.0000      -1.861072       -50.6423 
  19   1.0000      -1.855950       -50.5030 
  20   1.0000      -1.855950       -50.5030 
  21   1.0000      -1.840941       -50.0946 
  22   1.0000      -1.840941       -50.0946 
  23   1.0000      -0.648704       -17.6521 
  24   1.0000      -0.299481        -8.1493 
  25   1.0000      -0.259963        -7.0740 
  26   1.0000      -0.259963        -7.0740 
  27   0.0000       0.058409         1.5894 
  28   0.0000       0.077485         2.1085 
  29   0.0000       0.090111         2.4521 
  30   0.0000       0.090111         2.4521 
  31   0.0000       0.149638         4.0719 
  32   0.0000       0.155617         4.2345 
  33   0.0000       0.155617         4.2345 
  34   0.0000       0.178802         4.8655 
  35   0.0000       0.178802         4.8655 
  36   0.0000       0.567663        15.4469 
  37   0.0000       0.571600        15.5540 
  38   0.0000       0.571600        15.5540 
  39   0.0000       0.584037        15.8925 
  40   0.0000       0.584037        15.8925 
  41   0.0000       0.606261        16.4972 
  42   0.0000       0.606261        16.4972 
  43   0.0000       0.809291        22.0219 
  44   0.0000       0.836726        22.7685 
  45   0.0000       0.836726        22.7685 
  46   0.0000       0.961898        26.1746 
  47   0.0000       1.177105        32.0307 
  48   0.0000       1.184457        32.2307 
  49   0.0000       1.184457        32.2307 
  50   0.0000       1.208629        32.8885 
  51   0.0000       1.208629        32.8885 
  52   0.0000       1.582471        43.0612 
  53   0.0000       1.585013        43.1304 
  54   0.0000       1.585013        43.1304 
  55   0.0000       1.592925        43.3457 
  56   0.0000       1.592925        43.3457 
  57   0.0000       1.606608        43.7180 
  58   0.0000       1.606608        43.7180 
  59   0.0000       1.626636        44.2630 
  60   0.0000       1.626636        44.2630 
  61   0.0000       1.662789        45.2468 
  62   0.0000       1.665426        45.3185 
  63   0.0000       1.665426        45.3185 
  64   0.0000       1.673584        45.5405 
  65   0.0000       1.673584        45.5405 
  66   0.0000       1.687607        45.9221 
  67   0.0000       1.687607        45.9221 
  68   0.0000       4.379293       119.1666 
  69   0.0000       4.402200       119.7900 
  70   0.0000       4.402200       119.7900 
  71   0.0000       4.536263       123.4380 
  72   0.0000       4.538693       123.5041 
  73   0.0000       4.538693       123.5041 
  74   0.0000       4.546127       123.7064 
  75   0.0000       4.546127       123.7064 
  76   0.0000       4.558808       124.0515 
  77   0.0000       4.558808       124.0515 
  78   0.0000       5.864422       159.5790 
  79   0.0000       5.927242       161.2885 
  80   0.0000       5.931217       161.3966 
  81   0.0000       5.931217       161.3966 
  82   0.0000       5.947834       161.8488 
  83   0.0000       5.947834       161.8488 
  84   0.0000       6.013033       163.6229 
  85   0.0000       6.014615       163.6660 
  86   0.0000       6.014615       163.6660 
  87   0.0000       6.019436       163.7972 
  88   0.0000       6.019436       163.7972 
  89   0.0000       6.027624       164.0200 
  90   0.0000       6.027624       164.0200 
  91   0.0000       6.039986       164.3564 
  92   0.0000       6.039986       164.3564 

                 SPIN DOWN ORBITALS
  NO   OCC          E(Eh)            E(eV) 
   0   1.0000   -1257.004130    -34204.8213 
   1   1.0000    -188.836772     -5138.5098 
   2   1.0000    -170.489208     -4639.2472 
   3   1.0000    -170.487018     -4639.1876 
   4   1.0000    -170.487018     -4639.1876 
   5   1.0000     -37.898923     -1031.2821 
   6   1.0000     -31.851755      -866.7303 
   7   1.0000     -31.845791      -866.5680 
   8   1.0000     -31.845791      -866.5680 
   9   1.0000     -22.423115      -610.1640 
  10   1.0000     -22.421785      -610.1278 
  11   1.0000     -22.421785      -610.1278 
  12   1.0000     -22.417769      -610.0185 
  13   1.0000     -22.417769      -610.0185 
  14   1.0000      -6.628623      -180.3740 
  15   1.0000      -4.721755      -128.4855 
  16   1.0000      -4.708793      -128.1328 
  17   1.0000      -4.708793      -128.1328 
  18   1.0000      -1.853251       -50.4295 
  19   1.0000      -1.850321       -50.3498 
  20   1.0000      -1.850321       -50.3498 
  21   1.0000      -1.840288       -50.0768 
  22   1.0000      -1.840288       -50.0768 
  23   1.0000      -0.622660       -16.9434 
  24   1.0000      -0.248844        -6.7714 
  25   1.0000      -0.248844        -6.7714 
  26   0.0000      -0.243046        -6.6136 
  27   0.0000       0.069741         1.8978 
  28   0.0000       0.093484         2.5438 
  29   0.0000       0.093484         2.5438 
  30   0.0000       0.097301         2.6477 
  31   0.0000       0.182735         4.9725 
  32   0.0000       0.182735         4.9725 
  33   0.0000       0.185891         5.0583 
  34   0.0000       0.185891         5.0583 
  35   0.0000       0.192513         5.2386 
  36   0.0000       0.607627        16.5344 
  37   0.0000       0.607627        16.5344 
  38   0.0000       0.607882        16.5413 
  39   0.0000       0.607882        16.5413 
  40   0.0000       0.611870        16.6498 
  41   0.0000       0.611870        16.6498 
  42   0.0000       0.614311        16.7163 
  43   0.0000       0.843241        22.9458 
  44   0.0000       0.843241        22.9458 
  45   0.0000       0.843662        22.9572 
  46   0.0000       0.978651        26.6305 
  47   0.0000       1.211308        32.9614 
  48   0.0000       1.211308        32.9614 
  49   0.0000       1.212472        32.9930 
  50   0.0000       1.212472        32.9930 
  51   0.0000       1.214583        33.0505 
  52   0.0000       1.625995        44.2456 
  53   0.0000       1.625995        44.2456 
  54   0.0000       1.626645        44.2633 
  55   0.0000       1.626645        44.2633 
  56   0.0000       1.630275        44.3620 
  57   0.0000       1.630275        44.3620 
  58   0.0000       1.634327        44.4723 
  59   0.0000       1.634327        44.4723 
  60   0.0000       1.635800        44.5124 
  61   0.0000       1.676403        45.6172 
  62   0.0000       1.676999        45.6335 
  63   0.0000       1.676999        45.6335 
  64   0.0000       1.680320        45.7238 
  65   0.0000       1.680320        45.7238 
  66   0.0000       1.687676        45.9240 
  67   0.0000       1.687676        45.9240 
  68   0.0000       4.397784       119.6698 
  69   0.0000       4.405572       119.8817 
  70   0.0000       4.405572       119.8817 
  71   0.0000       4.553885       123.9175 
  72   0.0000       4.553885       123.9175 
  73   0.0000       4.553948       123.9192 
  74   0.0000       4.555326       123.9567 
  75   0.0000       4.555326       123.9567 
  76   0.0000       4.559419       124.0681 
  77   0.0000       4.559419       124.0681 
  78   0.0000       5.875544       159.8817 
  79   0.0000       5.943139       161.7210 
  80   0.0000       5.943139       161.7210 
  81   0.0000       5.943232       161.7236 
  82   0.0000       5.949655       161.8983 
  83   0.0000       5.949655       161.8983 
  84   0.0000       6.021583       163.8556 
  85   0.0000       6.022504       163.8807 
  86   0.0000       6.022504       163.8807 
  87   0.0000       6.025479       163.9616 
  88   0.0000       6.025479       163.9616 
  89   0.0000       6.030908       164.1093 
  90   0.0000       6.030908       164.1093 
  91   0.0000       6.039448       164.3417 
  92   0.0000       6.039448       164.3417 

                    ********************************
                    * MULLIKEN POPULATION ANALYSIS *
                    ********************************

--------------------------------------------
MULLIKEN ATOMIC CHARGES AND SPIN POPULATIONS
--------------------------------------------
   0 I :   -0.000000    1.000000
Sum of atomic charges         :   -0.0000000
Sum of atomic spin populations:    1.0000000

-----------------------------------------------------
MULLIKEN REDUCED ORBITAL CHARGES AND SPIN POPULATIONS
-----------------------------------------------------
CHARGE
  0 I s       :     9.999079  s :     9.999079
      pz      :     7.001915  p :    22.997927
      px      :     7.998807
      py      :     7.997205
      dz2     :     4.000902  d :    20.000887
      dxz     :     3.999994
      dyz     :     3.999998
      dx2y2   :     3.999996
      dxy     :     3.999996
      f0      :     0.000825  f :     0.002073
      f+1     :     0.000619
      f-1     :     0.000621
      f+2     :     0.000004
      f-2     :     0.000004
      f+3     :     0.000000
      f-3     :     0.000000
      g0      :     0.000011  g :     0.000035
      g+1     :     0.000008
      g-1     :     0.000008
      g+2     :     0.000004
      g-2     :     0.000004
      g+3     :     0.000000
      g-3     :     0.000000
      g+4     :     0.000000
      g-4     :     0.000000

SPIN
  0 I s       :    -0.000861  s :    -0.000861
      pz      :     0.996433  p :     0.997960
      px      :    -0.000036
      py      :     0.001564
      dz2     :     0.000849  d :     0.000841
      dxz     :    -0.000004
      dyz     :     0.000000
      dx2y2   :    -0.000003
      dxy     :    -0.000003
      f0      :     0.000821  f :     0.002040
      f+1     :     0.000604
      f-1     :     0.000606
      f+2     :     0.000004
      f-2     :     0.000004
      f+3     :     0.000000
      f-3     :     0.000000
      g0      :     0.000005  g :     0.000020
      g+1     :     0.000005
      g-1     :     0.000005
      g+2     :     0.000003
      g-2     :     0.000003
      g+3     :     0.000000
      g-3     :     0.000000
      g+4     :     0.000000
      g-4     :     0.000000


                     *******************************
                     * LOEWDIN POPULATION ANALYSIS *
                     *******************************

-------------------------------------------
LOEWDIN ATOMIC CHARGES AND SPIN POPULATIONS
-------------------------------------------
   0 I :   -0.000000    1.000000

----------------------------------------------------
LOEWDIN REDUCED ORBITAL CHARGES AND SPIN POPULATIONS
----------------------------------------------------
CHARGE
  0 I s       :     9.999079  s :     9.999079
      pz      :     7.001915  p :    22.997927
      px      :     7.998807
      py      :     7.997205
      dz2     :     4.000902  d :    20.000887
      dxz     :     3.999994
      dyz     :     3.999998
      dx2y2   :     3.999996
      dxy     :     3.999996
      f0      :     0.000825  f :     0.002073
      f+1     :     0.000619
      f-1     :     0.000621
      f+2     :     0.000004
      f-2     :     0.000004
      f+3     :     0.000000
      f-3     :     0.000000
      g0      :     0.000011  g :     0.000035
      g+1     :     0.000008
      g-1     :     0.000008
      g+2     :     0.000004
      g-2     :     0.000004
      g+3     :     0.000000
      g-3     :     0.000000
      g+4     :     0.000000
      g-4     :     0.000000

SPIN
  0 I s       :    -0.000861  s :    -0.000861
      pz      :     0.996433  p :     0.997960
      px      :    -0.000036
      py      :     0.001564
      dz2     :     0.000849  d :     0.000841
      dxz     :    -0.000004
      dyz     :     0.000000
      dx2y2   :    -0.000003
      dxy     :    -0.000003
      f0      :     0.000821  f :     0.002040
      f+1     :     0.000604
      f-1     :     0.000606
      f+2     :     0.000004
      f-2     :     0.000004
      f+3     :     0.000000
      f-3     :     0.000000
      g0      :     0.000005  g :     0.000020
      g+1     :     0.000005
      g-1     :     0.000005
      g+2     :     0.000003
      g-2     :     0.000003
      g+3     :     0.000000
      g-3     :     0.000000
      g+4     :     0.000000
      g-4     :     0.000000


                      *****************************
                      * MAYER POPULATION ANALYSIS *
                      *****************************

  NA   - Mulliken gross atomic population
  ZA   - Total nuclear charge
  QA   - Mulliken gross atomic charge
  VA   - Mayer's total valence
  BVA  - Mayer's bonded valence
  FA   - Mayer's free valence

  ATOM       NA         ZA         QA         VA         BVA        FA
  0 I     53.0000    53.0000    -0.0000     1.0058     0.0000     1.0058

  Mayer bond orders larger than 0.100000


-------
TIMINGS
-------

Total SCF time: 0 days 0 hours 18 min 47 sec 

Total time                  ....    1127.087 sec
Sum of individual times     ....    1121.689 sec  ( 99.5%)

Fock matrix formation       ....    1119.852 sec  ( 99.4%)
  XC integration            ....       1.649 sec  (  0.1% of F)
    Basis function eval.    ....       0.149 sec  (  9.0% of XC)
    Density eval.           ....       0.073 sec  (  4.4% of XC)
    XC-Functional eval.     ....       0.034 sec  (  2.1% of XC)
    XC-Potential eval.      ....       0.077 sec  (  4.6% of XC)
Diagonalization             ....       0.144 sec  (  0.0%)
Density matrix formation    ....       0.005 sec  (  0.0%)
Population analysis         ....       0.104 sec  (  0.0%)
Initial guess               ....       0.391 sec  (  0.0%)
Orbital Transformation      ....       0.000 sec  (  0.0%)
Orbital Orthonormalization  ....       0.000 sec  (  0.0%)
DIIS solution               ....       0.085 sec  (  0.0%)
SOSCF solution              ....       0.048 sec  (  0.0%)
Grid generation             ....       1.060 sec  (  0.1%)

Maximum memory used throughout the entire SCF-calculation: 255.5 MB

-------------------------   --------------------
FINAL SINGLE POINT ENERGY     -7240.268442512382
-------------------------   --------------------


                            ***************************************
                            *     ORCA property calculations      *
                            ***************************************

                                    ---------------------
                                    Active property flags
                                    ---------------------
   (+) Dipole Moment


------------------------------------------------------------------------------
                       ORCA ELECTRIC PROPERTIES CALCULATION
------------------------------------------------------------------------------

Dipole Moment Calculation                       ... on
Quadrupole Moment Calculation                   ... off
Polarizability Calculation                      ... off
GBWName                                         ... I_ano-rcc-vqzp_pbe.gbw
Electron density                                ... I_ano-rcc-vqzp_pbe.scfp
The origin for moment calculation is the CENTER OF MASS  = ( 0.000000,  0.000000  0.000000)

-------------
DIPOLE MOMENT
-------------
                                X             Y             Z
Electronic contribution:      0.00000       0.00000      -0.00000
Nuclear contribution   :      0.00000       0.00000       0.00000
                        -----------------------------------------
Total Dipole Moment    :      0.00000       0.00000      -0.00000
                        -----------------------------------------
Magnitude (a.u.)       :      0.00000
Magnitude (Debye)      :      0.00000



--------------------
Rotational spectrum 
--------------------
 
Rotational constants in cm-1:     0.000000     0.000000     0.000000 
Rotational constants in MHz :     0.000000     0.000000     0.000000 

 Dipole components along the rotational axes: 
x,y,z [a.u.] :     0.000000     0.000000    -0.000000 
x,y,z [Debye]:     0.000000     0.000000    -0.000000 

 

Timings for individual modules:

Sum of individual times         ...     1162.063 sec (=  19.368 min)
GTO integral calculation        ...       28.402 sec (=   0.473 min)   2.4 %
Relativistic integrals          ...        3.919 sec (=   0.065 min)   0.3 %
SCF iterations                  ...     1129.742 sec (=  18.829 min)  97.2 %
                             ****ORCA TERMINATED NORMALLY****
TOTAL RUN TIME: 0 days 0 hours 19 minutes 27 seconds 79 msec
