
                                 *****************
                                 * O   R   C   A *
                                 *****************

                                            #,                                       
                                            ###                                      
                                            ####                                     
                                            #####                                    
                                            ######                                   
                                           ########,                                 
                                     ,,################,,,,,                         
                               ,,#################################,,                 
                          ,,##########################################,,             
                       ,#########################################, ''#####,          
                    ,#############################################,,   '####,        
                  ,##################################################,,,,####,       
                ,###########''''           ''''###############################       
              ,#####''   ,,,,##########,,,,          '''####'''          '####       
            ,##' ,,,,###########################,,,                        '##       
           ' ,,###''''                  '''############,,,                           
         ,,##''                                '''############,,,,        ,,,,,,###''
      ,#''                                            '''#######################'''  
     '                                                          ''''####''''         
             ,#######,   #######,   ,#######,      ##                                
            ,#'     '#,  ##    ##  ,#'     '#,    #''#        ######   ,####,        
            ##       ##  ##   ,#'  ##            #'  '#       #        #'  '#        
            ##       ##  #######   ##           ,######,      #####,   #    #        
            '#,     ,#'  ##    ##  '#,     ,#' ,#      #,         ##   #,  ,#        
             '#######'   ##     ##  '#######'  #'      '#     #####' # '####'        



                  #######################################################
                  #                        -***-                        #
                  #          Department of theory and spectroscopy      #
                  #    Directorship and core code : Frank Neese         #
                  #        Max Planck Institute fuer Kohlenforschung    #
                  #                Kaiser Wilhelm Platz 1               #
                  #                 D-45470 Muelheim/Ruhr               #
                  #                      Germany                        #
                  #                                                     #
                  #                  All rights reserved                #
                  #                        -***-                        #
                  #######################################################


                         Program Version 5.0.1 -  RELEASE  -


 With contributions from (in alphabetic order):
   Daniel Aravena         : Magnetic Suceptibility
   Michael Atanasov       : Ab Initio Ligand Field Theory (pilot matlab implementation)
   Alexander A. Auer      : GIAO ZORA, VPT2 properties, NMR spectrum
   Ute Becker             : Parallelization
   Giovanni Bistoni       : ED, misc. LED, open-shell LED, HFLD
   Martin Brehm           : Molecular dynamics
   Dmytro Bykov           : SCF Hessian
   Vijay G. Chilkuri      : MRCI spin determinant printing, contributions to CSF-ICE
   Dipayan Datta          : RHF DLPNO-CCSD density
   Achintya Kumar Dutta   : EOM-CC, STEOM-CC
   Dmitry Ganyushin       : Spin-Orbit,Spin-Spin,Magnetic field MRCI
   Miquel Garcia          : C-PCM and meta-GGA Hessian, CC/C-PCM, Gaussian charge scheme
   Yang Guo               : DLPNO-NEVPT2, F12-NEVPT2, CIM, IAO-localization
   Andreas Hansen         : Spin unrestricted coupled pair/coupled cluster methods
   Benjamin Helmich-Paris : MC-RPA, TRAH-SCF, COSX integrals
   Lee Huntington         : MR-EOM, pCC
   Robert Izsak           : Overlap fitted RIJCOSX, COSX-SCS-MP3, EOM
   Marcus Kettner         : VPT2
   Christian Kollmar      : KDIIS, OOCD, Brueckner-CCSD(T), CCSD density, CASPT2, CASPT2-K
   Simone Kossmann        : Meta GGA functionals, TD-DFT gradient, OOMP2, MP2 Hessian
   Martin Krupicka        : Initial AUTO-CI
   Lucas Lang             : DCDCAS
   Marvin Lechner         : AUTO-CI (C++ implementation), FIC-MRCC
   Dagmar Lenk            : GEPOL surface, SMD
   Dimitrios Liakos       : Extrapolation schemes; Compound Job, initial MDCI parallelization
   Dimitrios Manganas     : Further ROCIS development; embedding schemes
   Dimitrios Pantazis     : SARC Basis sets
   Anastasios Papadopoulos: AUTO-CI, single reference methods and gradients
   Taras Petrenko         : DFT Hessian,TD-DFT gradient, ASA, ECA, R-Raman, ABS, FL, XAS/XES, NRVS
   Peter Pinski           : DLPNO-MP2, DLPNO-MP2 Gradient
   Christoph Reimann      : Effective Core Potentials
   Marius Retegan         : Local ZFS, SOC
   Christoph Riplinger    : Optimizer, TS searches, QM/MM, DLPNO-CCSD(T), (RO)-DLPNO pert. Triples
   Tobias Risthaus        : Range-separated hybrids, TD-DFT gradient, RPA, STAB
   Michael Roemelt        : Original ROCIS implementation
   Masaaki Saitow         : Open-shell DLPNO-CCSD energy and density
   Barbara Sandhoefer     : DKH picture change effects
   Avijit Sen             : IP-ROCIS
   Kantharuban Sivalingam : CASSCF convergence, NEVPT2, FIC-MRCI
   Bernardo de Souza      : ESD, SOC TD-DFT
   Georgi Stoychev        : AutoAux, RI-MP2 NMR, DLPNO-MP2 response
   Willem Van den Heuvel  : Paramagnetic NMR
   Boris Wezisla          : Elementary symmetry handling
   Frank Wennmohs         : Technical directorship


 We gratefully acknowledge several colleagues who have allowed us to
 interface, adapt or use parts of their codes:
   Stefan Grimme, W. Hujo, H. Kruse, P. Pracht,  : VdW corrections, initial TS optimization,
                  C. Bannwarth, S. Ehlert          DFT functionals, gCP, sTDA/sTD-DF
   Ed Valeev, F. Pavosevic, A. Kumar             : LibInt (2-el integral package), F12 methods
   Garnet Chan, S. Sharma, J. Yang, R. Olivares  : DMRG
   Ulf Ekstrom                                   : XCFun DFT Library
   Mihaly Kallay                                 : mrcc  (arbitrary order and MRCC methods)
   Jiri Pittner, Ondrej Demel                    : Mk-CCSD
   Frank Weinhold                                : gennbo (NPA and NBO analysis)
   Christopher J. Cramer and Donald G. Truhlar   : smd solvation model
   Lars Goerigk                                  : TD-DFT with DH, B97 family of functionals
   V. Asgeirsson, H. Jonsson                     : NEB implementation
   FAccTs GmbH                                   : IRC, NEB, NEB-TS, DLPNO-Multilevel, CI-OPT
                                                   MM, QMMM, 2- and 3-layer-ONIOM, Crystal-QMMM,
                                                   LR-CPCM, SF, NACMEs, symmetry and pop. for TD-DFT,
                                                   nearIR, NL-DFT gradient (VV10), updates on ESD,
                                                   ML-optimized integration grids
   S Lehtola, MJT Oliveira, MAL Marques          : LibXC Library
   Liviu Ungur et al                             : ANISO software


 Your calculation uses the libint2 library for the computation of 2-el integrals
 For citations please refer to: http://libint.valeyev.net

 Your ORCA version has been built with support for libXC version: 5.1.0
 For citations please refer to: https://tddft.org/programs/libxc/

 This ORCA versions uses:
   CBLAS   interface :  Fast vector & matrix operations
   LAPACKE interface :  Fast linear algebra routines
   SCALAPACK package :  Parallel linear algebra routines
   Shared memory     :  Shared parallel matrices
   BLAS/LAPACK       :  OpenBLAS 0.3.15  USE64BITINT DYNAMIC_ARCH NO_AFFINITY Haswell SINGLE_THREADED
        Core in use  :  Haswell
   Copyright (c) 2011-2014, The OpenBLAS Project


SCAN-COORDS

Reading of a custom basis requested
Basis file         : In_ano-r3.basis
READING GTO-BASIS: INDIUM
Basis successfully read

================================================================================

----- Orbital basis set information -----
================================================================================
                                        WARNINGS
                       Please study these warnings very carefully!
================================================================================


INFO   : the flag for use of the SHARK integral package has been found!

================================================================================
                                       INPUT FILE
================================================================================
NAME = In_ano-r3_pbe.inp
|  1> !uks pbe nori verytightscf soscf notrah defgrid3
|  2> 
|  3> %pal
|  4>   nprocs 32
|  5> end
|  6> %coords
|  7>   charge 0
|  8>   mult 2
|  9>   units bohrs
| 10>   coords
| 11>     In 0.0 0.0 0.0
| 12>   end
| 13> end
| 14> %basis
| 15>   gtoname "In_ano-r3.basis"
| 16>   delECP In
| 17> end
| 18> %rel
| 19>   method zora
| 20>   modelpot 1, 0, 0, 0
| 21>   c 137.035999084
| 22> endd                         ****END OF INPUT****
================================================================================

                       ****************************
                       * Single Point Calculation *
                       ****************************

---------------------------------
CARTESIAN COORDINATES (ANGSTROEM)
---------------------------------
  In     0.000000    0.000000    0.000000

----------------------------
CARTESIAN COORDINATES (A.U.)
----------------------------
  NO LB      ZA    FRAG     MASS         X           Y           Z
   0 In   49.0000    0   114.820    0.000000    0.000000    0.000000

--------------------------------
INTERNAL COORDINATES (ANGSTROEM)
--------------------------------
 In     0   0   0     0.000000000000     0.00000000     0.00000000

---------------------------
INTERNAL COORDINATES (A.U.)
---------------------------
 In     0   0   0     0.000000000000     0.00000000     0.00000000

---------------------
BASIS SET INFORMATION
---------------------
There are 1 groups of distinct atoms

 Group   1 Type In  : 184s126p60d18f10g3h contracted to 8s7p5d3f2g1h pattern {2323232323232323/18181818181818/1212121212/666/55/3}

Atom   0In   basis set group =>   1


           ************************************************************
           *        Program running with 32 parallel MPI-processes    *
           *              working on a common directory               *
           ************************************************************
------------------------------------------------------------------------------
                           ORCA GTO INTEGRAL CALCULATION
------------------------------------------------------------------------------
------------------------------------------------------------------------------
                   ___                                                        
                  /   \      - P O W E R E D   B Y -                         
                 /     \                                                     
                 |  |  |   _    _      __       _____    __    __             
                 |  |  |  | |  | |    /  \     |  _  \  |  |  /  |          
                  \  \/   | |  | |   /    \    | | | |  |  | /  /          
                 / \  \   | |__| |  /  /\  \   | |_| |  |  |/  /          
                |  |  |   |  __  | /  /__\  \  |    /   |      \           
                |  |  |   | |  | | |   __   |  |    \   |  |\   \          
                \     /   | |  | | |  |  |  |  | |\  \  |  | \   \       
                 \___/    |_|  |_| |__|  |__|  |_| \__\ |__|  \__/        
                                                                              
                      - O R C A' S   B I G   F R I E N D -                    
                                      &                                       
                       - I N T E G R A L  F E E D E R -                       
                                                                              
 v1 FN, 2020, v2 2021                                                         
------------------------------------------------------------------------------


Reading SHARK input file In_ano-r3_pbe.SHARKINP.tmp ... ok
----------------------
SHARK INTEGRAL PACKAGE
----------------------

Number of atoms                             ...      1
Number of basis functions                   ...    104
Number of shells                            ...     26
Maximum angular momentum                    ...      5
Integral batch strategy                     ... SHARK/LIBINT Hybrid
RI-J (if used) integral strategy            ... SPLIT-RIJ (Revised 2003 algorithm where possible)
Printlevel                                  ...      1
Contraction scheme used                     ... SEGMENTED contraction
Coulomb Range Separation                    ... NOT USED
Exchange Range Separation                   ... NOT USED
Finite Nucleus Model                        ... NOT USED
Auxiliary Coulomb fitting basis             ... NOT available
Auxiliary J/K fitting basis                 ... NOT available
Auxiliary Correlation fitting basis         ... NOT available
Auxiliary 'external' fitting basis          ... NOT available
Integral threshold                          ...     1.000000e-12
Primitive cut-off                           ...     1.000000e-14
Primitive pair pre-selection threshold      ...     1.000000e-14

Calculating pre-screening integrals         ... done ( 29.2 sec) Dimension = 26
Organizing shell pair data                  ... done (  0.4 sec)
Shell pair information
Total number of shell pairs                 ...       351
Shell pairs after pre-screening             ...       351
Total number of primitive shell pairs       ...     84094
Primitive shell pairs kept                  ...     84079
          la=0 lb=0:     36 shell pairs
          la=1 lb=0:     56 shell pairs
          la=1 lb=1:     28 shell pairs
          la=2 lb=0:     40 shell pairs
          la=2 lb=1:     35 shell pairs
          la=2 lb=2:     15 shell pairs
          la=3 lb=0:     24 shell pairs
          la=3 lb=1:     21 shell pairs
          la=3 lb=2:     15 shell pairs
          la=3 lb=3:      6 shell pairs
          la=4 lb=0:     16 shell pairs
          la=4 lb=1:     14 shell pairs
          la=4 lb=2:     10 shell pairs
          la=4 lb=3:      6 shell pairs
          la=4 lb=4:      3 shell pairs
          la=5 lb=0:      8 shell pairs
          la=5 lb=1:      7 shell pairs
          la=5 lb=2:      5 shell pairs
          la=5 lb=3:      3 shell pairs
          la=5 lb=4:      2 shell pairs
          la=5 lb=5:      1 shell pairs

Calculating one electron integrals          ... done (  0.1 sec)
Calculating Nuclear repulsion               ... done (  0.0 sec) ENN=      0.000000000000 Eh

SHARK setup successfully completed in  30.1 seconds

Maximum memory used throughout the entire GTOINT-calculation: 386.5 MB


           ************************************************************
           *        Program running with 32 parallel MPI-processes    *
           *              working on a common directory               *
           ************************************************************
------------------------------------------------------------------------------
                          ORCA RELATIVISTIC HAMILTONIAN
------------------------------------------------------------------------------

Relativistic Method            ... ZORA(MP)
Treatment of potential         ... Van Wuellen
Nucleus model                  ... Point Nucleus
Speed of light used            ... 137.03599908400000


            *************************************************
            *         ZERO ORDER REGULAR APPROXIMATION      *
            *                     ZORA(MP)                  *
            *            Programmed by FN according to      *
            *                   C. van Wuellen              *
            *       J. Chem. Phys. (1998) vol 109, 392-399  *
            *************************************************

Terms included in model potential: +V(e,N)
Basis function cutoff value   ... 1.000000e-12
Loading the fitted atomic densities  (DKH4)  ... done
Calculating the cutoffs                      ... done
Number of fit functions                      ... 29
Setting up the integration grid ... done

Maximum memory used throughout the entire REL-calculation: 12.2 MB


           ************************************************************
           *        Program running with 32 parallel MPI-processes    *
           *              working on a common directory               *
           ************************************************************
-------------------------------------------------------------------------------
                                 ORCA SCF
-------------------------------------------------------------------------------

------------
SCF SETTINGS
------------
Hamiltonian:
 Density Functional     Method          .... DFT(GTOs)
 Exchange Functional    Exchange        .... PBE
   PBE kappa parameter   XKappa         ....  0.804000
   PBE mue parameter    XMuePBE         ....  0.219520
 Correlation Functional Correlation     .... PBE
   PBE beta parameter  CBetaPBE         ....  0.066725
 LDA part of GGA corr.  LDAOpt          .... PW91-LDA
 Gradients option       PostSCFGGA      .... off
   Density functional embedding theory  .... OFF
   NL short-range parameter             ....  6.400000

Relativistic Settings:
 Scalar relativistic method             .... ZORA
 Speed of light used       Velit        ....       137.035999
Orbital energies will be scaled


General Settings:
 Integral files         IntName         .... In_ano-r3_pbe
 Hartree-Fock type      HFTyp           .... UHF
 Total Charge           Charge          ....    0
 Multiplicity           Mult            ....    2
 Number of Electrons    NEL             ....   49
 Basis Dimension        Dim             ....  104
 Nuclear Repulsion      ENuc            ....      0.0000000000 Eh

Convergence Acceleration:
 DIIS                   CNVDIIS         .... on
   Start iteration      DIISMaxIt       ....    12
   Startup error        DIISStart       ....  0.200000
   # of expansion vecs  DIISMaxEq       ....     5
   Bias factor          DIISBfac        ....   1.050
   Max. coefficient     DIISMaxC        ....  10.000
 Trust-Rad. Augm. Hess. CNVTRAH         .... off
 SOSCF                  CNVSOSCF        .... on
   Start iteration      SOSCFMaxIt      ....   150
   Startup grad/error   SOSCFStart      ....  0.003300
 Level Shifting         CNVShift        .... on
   Level shift para.    LevelShift      ....    0.2500
   Turn off err/grad.   ShiftErr        ....    0.0010
 Zerner damping         CNVZerner       .... off
 Static damping         CNVDamp         .... on
   Fraction old density DampFac         ....    0.7000
   Max. Damping (<1)    DampMax         ....    0.9800
   Min. Damping (>=0)   DampMin         ....    0.0000
   Turn off err/grad.   DampErr         ....    0.1000
 Fernandez-Rico         CNVRico         .... off

SCF Procedure:
 Maximum # iterations   MaxIter         ....   125
 SCF integral mode      SCFMode         .... Direct
   Integral package                     .... SHARK and LIBINT hybrid scheme
 Reset frequency        DirectResetFreq ....    20
 Integral Threshold     Thresh          ....  1.000e-12 Eh
 Primitive CutOff       TCut            ....  1.000e-14 Eh

Convergence Tolerance:
 Convergence Check Mode ConvCheckMode   .... Total+1el-Energy
 Convergence forced     ConvForced      .... 0
 Energy Change          TolE            ....  1.000e-09 Eh
 1-El. energy change                    ....  1.000e-06 Eh
 Orbital Gradient       TolG            ....  2.000e-06
 Orbital Rotation angle TolX            ....  2.000e-06
 DIIS Error             TolErr          ....  1.000e-08


Diagonalization of the overlap matrix:
Smallest eigenvalue                        ... 1.000e+00
Time for diagonalization                   ...    0.003 sec
Threshold for overlap eigenvalues          ... 1.000e-08
Number of eigenvalues below threshold      ... 0
Time for construction of square roots      ...    0.042 sec
Total time needed                          ...    0.046 sec

Time for model grid setup =    0.075 sec

------------------------------
INITIAL GUESS: MODEL POTENTIAL
------------------------------
Loading ZORA relativistic densities                ... done
Calculating cut-offs                               ... done
Initializing the effective Hamiltonian             ... done
Setting up the integral package (SHARK)            ... done
Starting the Coulomb interaction                   ... done (   0.4 sec)
Reading the grid                                   ... done
Mapping shells                                     ... done
Starting the XC term evaluation                    ... done (   0.0 sec)
  promolecular density results
     # of electrons  =     49.000190025
     EX              =   -163.584141883
     EC              =     -2.578456339
     EX+EC           =   -166.162598222
Transforming the Hamiltonian                       ... done (   0.0 sec)
Diagonalizing the Hamiltonian                      ... done (   0.0 sec)
Back transforming the eigenvectors                 ... done (   0.0 sec)
Now organizing SCF variables                       ... done
                      ------------------
                      INITIAL GUESS DONE (   0.6 sec)
                      ------------------
-------------------
DFT GRID GENERATION
-------------------

General Integration Accuracy     IntAcc      ... 4.959
Radial Grid Type                 RadialGrid  ... OptM3 with GC (2021)
Angular Grid (max. ang.)         AngularGrid ... 6 (Lebedev-590)
Angular grid pruning method      GridPruning ... 4 (adaptive)
Weight generation scheme         WeightScheme... Becke
Basis function cutoff            BFCut       ... 1.0000e-12
Integration weight cutoff        WCut        ... 1.0000e-14
Angular grids for H and He will be reduced by one unit
Partially contracted basis set               ... off
Rotationally invariant grid construction     ... off

Total number of grid points                  ...    32866
Total number of batches                      ...      514
Average number of points per batch           ...       63
Average number of grid points per atom       ...    32866
Time for grid setup =    0.972 sec

--------------
SCF ITERATIONS
--------------
ITER       Energy         Delta-E        Max-DP      RMS-DP      [F,P]     Damp
               ***  Starting incremental Fock matrix formation  ***
  0  -5975.8386604298   0.000000000000 0.00818683  0.00020475  0.2641705 0.7000
  1  -5975.8483925966  -0.009732166806 0.00407243  0.00010815  0.1795869 0.7000
                               ***Turning on DIIS***
  2  -5975.8530297751  -0.004637178535 0.00317560  0.00005208  0.1228177 0.7000
  3  -5975.8560382202  -0.003008445075 0.00782176  0.00012267  0.0845068 0.0000
  4  -5975.8627807588  -0.006742538572 0.00269679  0.00006457  0.0115813 0.0000
  5  -5975.8627962917  -0.000015532936 0.00109698  0.00002600  0.0107155 0.0000
                      *** Initiating the SOSCF procedure ***
                           *** Shutting down DIIS ***
                      *** Re-Reading the Fockian *** 
                      *** Removing any level shift *** 
ITER      Energy       Delta-E        Grad      Rot      Max-DP    RMS-DP
  6  -5975.86288840  -0.0000921129  0.000284  0.000284  0.000232  0.000006
               *** Restarting incremental Fock matrix formation ***
  7  -5975.86289005  -0.0000016424  0.000073  0.000085  0.000083  0.000001
  8  -5975.86289005  -0.0000000078  0.000070  0.000029  0.000028  0.000001
  9  -5975.86289008  -0.0000000241  0.000007  0.000023  0.000023  0.000000
 10  -5975.86289008  -0.0000000005  0.000002  0.000005  0.000005  0.000000
                  ***Gradient check signals convergence***
              ***Rediagonalizing the Fockian in SOSCF/NRSCF***

               *****************************************************
               *                     SUCCESS                       *
               *           SCF CONVERGED AFTER  11 CYCLES          *
               *****************************************************


----------------
TOTAL SCF ENERGY
----------------

Total Energy       :        -5975.86289008 Eh         -162611.49625 eV

Components:
Nuclear Repulsion  :            0.00000000 Eh               0.00000 eV
Electronic Energy  :        -5975.86289008 Eh         -162611.49625 eV
One Electron Energy:        -8193.70012114 Eh         -222961.91546 eV
Two Electron Energy:         2217.83723106 Eh           60350.41921 eV

Virial components:
Potential Energy   :       -12314.72464338 Eh         -335100.69374 eV
Kinetic Energy     :         6338.86175330 Eh          172489.19749 eV
Virial Ratio       :            1.94273438


DFT components:
N(Alpha)           :       24.999999983284 electrons
N(Beta)            :       23.999999983025 electrons
N(Total)           :       48.999999966308 electrons
E(X)               :     -158.535901147578 Eh       
E(C)               :       -2.581649713999 Eh       
E(XC)              :     -161.117550861577 Eh       
DFET-embed. en.    :        0.000000000000 Eh       

---------------
SCF CONVERGENCE
---------------

  Last Energy change         ...   -8.9130e-11  Tolerance :   1.0000e-09
  Last MAX-Density change    ...    2.8485e-07  Tolerance :   1.0000e-08
  Last RMS-Density change    ...    3.0419e-09  Tolerance :   1.0000e-09
  Last Orbital Gradient      ...    3.8306e-07  Tolerance :   2.0000e-06
  Last Orbital Rotation      ...    2.8912e-07  Tolerance :   2.0000e-06

             **** THE GBW FILE WAS UPDATED (In_ano-r3_pbe.gbw) ****
             **** DENSITY In_ano-r3_pbe.scfp WAS UPDATED ****
             **** ENERGY FILE WAS UPDATED (In_ano-r3_pbe.en.tmp) ****
----------------------
UHF SPIN CONTAMINATION
----------------------

Warning: in a DFT calculation there is little theoretical justification to 
         calculate <S**2> as in Hartree-Fock theory. We will do it anyways
         but you should keep in mind that the values have only limited relevance

Expectation value of <S**2>     :     0.751800
Ideal value S*(S+1) for S=0.5   :     0.750000
Deviation                       :     0.001800

             **** THE GBW FILE WAS UPDATED (In_ano-r3_pbe.gbw) ****
             **** DENSITY In_ano-r3_pbe.scfp WAS UPDATED ****
----------------
ORBITAL ENERGIES
----------------
                 SPIN UP ORBITALS
  NO   OCC          E(Eh)            E(eV) 
   0   1.0000   -1054.542502    -28695.5603 
   1   1.0000    -154.100515     -4193.2882 
   2   1.0000    -138.777665     -3776.3323 
   3   1.0000    -138.777665     -3776.3323 
   4   1.0000    -138.776522     -3776.3012 
   5   1.0000     -29.098083      -791.7991 
   6   1.0000     -24.034331      -654.0074 
   7   1.0000     -24.034331      -654.0074 
   8   1.0000     -24.031347      -653.9262 
   9   1.0000     -15.994480      -435.2319 
  10   1.0000     -15.994480      -435.2319 
  11   1.0000     -15.992456      -435.1768 
  12   1.0000     -15.992456      -435.1768 
  13   1.0000     -15.991777      -435.1584 
  14   1.0000      -4.402354      -119.7941 
  15   1.0000      -2.888405       -78.5975 
  16   1.0000      -2.888405       -78.5975 
  17   1.0000      -2.880775       -78.3899 
  18   1.0000      -0.687916       -18.7191 
  19   1.0000      -0.687916       -18.7191 
  20   1.0000      -0.681492       -18.5443 
  21   1.0000      -0.681492       -18.5443 
  22   1.0000      -0.679016       -18.4770 
  23   1.0000      -0.307951        -8.3798 
  24   1.0000      -0.104078        -2.8321 
  25   0.0000      -0.096526        -2.6266 
  26   0.0000      -0.096526        -2.6266 
  27   0.0000      -0.004576        -0.1245 
  28   0.0000       0.124495         3.3877 
  29   0.0000       0.128404         3.4940 
  30   0.0000       0.128404         3.4940 
  31   0.0000       0.198395         5.3986 
  32   0.0000       0.198395         5.3986 
  33   0.0000       0.201065         5.4713 
  34   0.0000       0.208822         5.6823 
  35   0.0000       0.208822         5.6823 
  36   0.0000       0.340610         9.2685 
  37   0.0000       0.764551        20.8045 
  38   0.0000       0.764551        20.8045 
  39   0.0000       0.766252        20.8508 
  40   0.0000       0.766252        20.8508 
  41   0.0000       0.766773        20.8650 
  42   0.0000       0.766773        20.8650 
  43   0.0000       0.767045        20.8724 
  44   0.0000       1.132651        30.8210 
  45   0.0000       1.132651        30.8210 
  46   0.0000       1.134682        30.8763 
  47   0.0000       1.409055        38.3423 
  48   0.0000       1.409055        38.3423 
  49   0.0000       1.411255        38.4022 
  50   0.0000       1.411255        38.4022 
  51   0.0000       1.413974        38.4762 
  52   0.0000       2.095948        57.0337 
  53   0.0000       2.095948        57.0337 
  54   0.0000       2.098479        57.1025 
  55   0.0000       2.098479        57.1025 
  56   0.0000       2.101379        57.1814 
  57   0.0000       2.101379        57.1814 
  58   0.0000       2.102437        57.2102 
  59   0.0000       2.656475        72.2864 
  60   0.0000       2.656475        72.2864 
  61   0.0000       2.659212        72.3608 
  62   0.0000       2.659212        72.3608 
  63   0.0000       2.662362        72.4466 
  64   0.0000       2.662362        72.4466 
  65   0.0000       2.664600        72.5075 
  66   0.0000       2.664600        72.5075 
  67   0.0000       2.665346        72.5278 
  68   0.0000       2.784354        75.7661 
  69   0.0000       5.077060       138.1538 
  70   0.0000       5.077060       138.1538 
  71   0.0000       5.079696       138.2256 
  72   0.0000       5.079696       138.2256 
  73   0.0000       5.082072       138.2902 
  74   0.0000       5.082072       138.2902 
  75   0.0000       5.082926       138.3134 
  76   0.0000       5.198756       141.4653 
  77   0.0000       5.198756       141.4654 
  78   0.0000       5.204791       141.6296 
  79   0.0000       6.233250       169.6154 
  80   0.0000       6.233250       169.6154 
  81   0.0000       6.236077       169.6923 
  82   0.0000       6.236077       169.6923 
  83   0.0000       6.238000       169.7446 
  84   0.0000       7.740513       210.6301 
  85   0.0000       7.740513       210.6301 
  86   0.0000       7.743222       210.7038 
  87   0.0000       7.743222       210.7038 
  88   0.0000       7.745547       210.7670 
  89   0.0000       7.745547       210.7670 
  90   0.0000       7.747067       210.8084 
  91   0.0000       7.747067       210.8084 
  92   0.0000       7.747566       210.8220 
  93   0.0000       7.766301       211.3318 
  94   0.0000       7.766301       211.3318 
  95   0.0000       7.770686       211.4511 
  96   0.0000       7.770686       211.4511 
  97   0.0000       7.774326       211.5502 
  98   0.0000       7.774326       211.5502 
  99   0.0000       7.777021       211.6235 
 100   0.0000       7.777021       211.6235 
 101   0.0000       7.778662       211.6681 
 102   0.0000       7.778662       211.6681 
 103   0.0000       7.779215       211.6832 

                 SPIN DOWN ORBITALS
  NO   OCC          E(Eh)            E(eV) 
   0   1.0000   -1054.542139    -28695.5505 
   1   1.0000    -154.100472     -4193.2870 
   2   1.0000    -138.777597     -3776.3304 
   3   1.0000    -138.777597     -3776.3304 
   4   1.0000    -138.775988     -3776.2866 
   5   1.0000     -29.097795      -791.7913 
   6   1.0000     -24.034239      -654.0049 
   7   1.0000     -24.034239      -654.0049 
   8   1.0000     -24.030550      -653.9045 
   9   1.0000     -15.994532      -435.2333 
  10   1.0000     -15.994532      -435.2333 
  11   1.0000     -15.992016      -435.1649 
  12   1.0000     -15.992016      -435.1649 
  13   1.0000     -15.991168      -435.1418 
  14   1.0000      -4.401815      -119.7795 
  15   1.0000      -2.888361       -78.5963 
  16   1.0000      -2.888361       -78.5963 
  17   1.0000      -2.878979       -78.3410 
  18   1.0000      -0.687600       -18.7106 
  19   1.0000      -0.687600       -18.7106 
  20   1.0000      -0.677847       -18.4452 
  21   1.0000      -0.677847       -18.4452 
  22   1.0000      -0.674833       -18.3631 
  23   1.0000      -0.289882        -7.8881 
  24   0.0000      -0.085366        -2.3229 
  25   0.0000      -0.085366        -2.3229 
  26   0.0000      -0.063423        -1.7258 
  27   0.0000       0.015996         0.4353 
  28   0.0000       0.140833         3.8323 
  29   0.0000       0.140833         3.8323 
  30   0.0000       0.157958         4.2983 
  31   0.0000       0.215238         5.8569 
  32   0.0000       0.215238         5.8569 
  33   0.0000       0.230245         6.2653 
  34   0.0000       0.230245         6.2653 
  35   0.0000       0.236370         6.4320 
  36   0.0000       0.358183         9.7467 
  37   0.0000       0.768821        20.9207 
  38   0.0000       0.768821        20.9207 
  39   0.0000       0.784118        21.3369 
  40   0.0000       0.784118        21.3369 
  41   0.0000       0.793881        21.6026 
  42   0.0000       0.793881        21.6026 
  43   0.0000       0.797122        21.6908 
  44   0.0000       1.139917        31.0187 
  45   0.0000       1.139917        31.0187 
  46   0.0000       1.160816        31.5874 
  47   0.0000       1.412202        38.4280 
  48   0.0000       1.412202        38.4280 
  49   0.0000       1.427073        38.8326 
  50   0.0000       1.427073        38.8326 
  51   0.0000       1.432266        38.9739 
  52   0.0000       2.096460        57.0476 
  53   0.0000       2.096460        57.0476 
  54   0.0000       2.105107        57.2829 
  55   0.0000       2.105107        57.2829 
  56   0.0000       2.110575        57.4317 
  57   0.0000       2.110575        57.4317 
  58   0.0000       2.112372        57.4806 
  59   0.0000       2.656638        72.2908 
  60   0.0000       2.656638        72.2908 
  61   0.0000       2.668778        72.6211 
  62   0.0000       2.668778        72.6211 
  63   0.0000       2.677543        72.8596 
  64   0.0000       2.677543        72.8596 
  65   0.0000       2.682792        73.0025 
  66   0.0000       2.682792        73.0025 
  67   0.0000       2.684547        73.0502 
  68   0.0000       2.792638        75.9915 
  69   0.0000       5.077404       138.1632 
  70   0.0000       5.077404       138.1632 
  71   0.0000       5.084822       138.3650 
  72   0.0000       5.084822       138.3650 
  73   0.0000       5.089406       138.4898 
  74   0.0000       5.089406       138.4898 
  75   0.0000       5.090917       138.5309 
  76   0.0000       5.201280       141.5340 
  77   0.0000       5.201280       141.5340 
  78   0.0000       5.214824       141.9026 
  79   0.0000       6.234453       169.6481 
  80   0.0000       6.234453       169.6481 
  81   0.0000       6.242777       169.8746 
  82   0.0000       6.242777       169.8746 
  83   0.0000       6.245656       169.9529 
  84   0.0000       7.740125       210.6195 
  85   0.0000       7.740125       210.6195 
  86   0.0000       7.745541       210.7669 
  87   0.0000       7.745541       210.7669 
  88   0.0000       7.749472       210.8739 
  89   0.0000       7.749472       210.8739 
  90   0.0000       7.751833       210.9381 
  91   0.0000       7.751833       210.9381 
  92   0.0000       7.752623       210.9596 
  93   0.0000       7.765870       211.3201 
  94   0.0000       7.765870       211.3201 
  95   0.0000       7.772555       211.5020 
  96   0.0000       7.772555       211.5020 
  97   0.0000       7.777742       211.6431 
  98   0.0000       7.777742       211.6431 
  99   0.0000       7.781435       211.7436 
 100   0.0000       7.781435       211.7436 
 101   0.0000       7.783646       211.8038 
 102   0.0000       7.783646       211.8038 
 103   0.0000       7.784383       211.8238 

                    ********************************
                    * MULLIKEN POPULATION ANALYSIS *
                    ********************************

--------------------------------------------
MULLIKEN ATOMIC CHARGES AND SPIN POPULATIONS
--------------------------------------------
   0 In:    0.000000    1.000000
Sum of atomic charges         :    0.0000000
Sum of atomic spin populations:    1.0000000

-----------------------------------------------------
MULLIKEN REDUCED ORBITAL CHARGES AND SPIN POPULATIONS
-----------------------------------------------------
CHARGE
  0 Ins       :     9.999092  s :     9.999092
      pz      :     5.999998  p :    18.999989
      px      :     6.000144
      py      :     6.999847
      dz2     :     4.000221  d :    20.000870
      dxz     :     3.999996
      dyz     :     3.999991
      dx2y2   :     4.000671
      dxy     :     3.999991
      f0      :     0.000001  f :     0.000011
      f+1     :     0.000000
      f-1     :     0.000002
      f+2     :     0.000002
      f-2     :     0.000000
      f+3     :     0.000003
      f-3     :     0.000004
      g0      :     0.000003  g :     0.000038
      g+1     :     0.000001
      g-1     :     0.000005
      g+2     :     0.000005
      g-2     :     0.000001
      g+3     :     0.000004
      g-3     :     0.000004
      g+4     :     0.000008
      g-4     :     0.000008
      h0      :     0.000000  h :     0.000000
      h+1     :     0.000000
      h-1     :     0.000000
      h+2     :     0.000000
      h-2     :     0.000000
      h+3     :     0.000000
      h-3     :     0.000000
      h+4     :     0.000000
      h-4     :     0.000000
      h+5     :     0.000000
      h-5     :     0.000000

SPIN
  0 Ins       :     0.000687  s :     0.000687
      pz      :     0.000001  p :     1.000001
      px      :     0.000147
      py      :     0.999852
      dz2     :    -0.000168  d :    -0.000665
      dxz     :     0.000003
      dyz     :     0.000005
      dx2y2   :    -0.000510
      dxy     :     0.000005
      f0      :    -0.000000  f :    -0.000001
      f+1     :    -0.000000
      f-1     :     0.000000
      f+2     :    -0.000000
      f-2     :    -0.000000
      f+3     :    -0.000001
      f-3     :     0.000001
      g0      :    -0.000002  g :    -0.000022
      g+1     :    -0.000000
      g-1     :    -0.000003
      g+2     :    -0.000003
      g-2     :    -0.000001
      g+3     :    -0.000003
      g-3     :    -0.000002
      g+4     :    -0.000004
      g-4     :    -0.000005
      h0      :     0.000000  h :     0.000000
      h+1     :     0.000000
      h-1     :     0.000000
      h+2     :     0.000000
      h-2     :     0.000000
      h+3     :     0.000000
      h-3     :     0.000000
      h+4     :     0.000000
      h-4     :     0.000000
      h+5     :     0.000000
      h-5     :     0.000000


                     *******************************
                     * LOEWDIN POPULATION ANALYSIS *
                     *******************************

-------------------------------------------
LOEWDIN ATOMIC CHARGES AND SPIN POPULATIONS
-------------------------------------------
   0 In:    0.000000    1.000000

----------------------------------------------------
LOEWDIN REDUCED ORBITAL CHARGES AND SPIN POPULATIONS
----------------------------------------------------
CHARGE
  0 Ins       :     9.999092  s :     9.999092
      pz      :     5.999998  p :    18.999989
      px      :     6.000144
      py      :     6.999847
      dz2     :     4.000221  d :    20.000870
      dxz     :     3.999996
      dyz     :     3.999991
      dx2y2   :     4.000671
      dxy     :     3.999991
      f0      :     0.000001  f :     0.000011
      f+1     :     0.000000
      f-1     :     0.000002
      f+2     :     0.000002
      f-2     :     0.000000
      f+3     :     0.000003
      f-3     :     0.000004
      g0      :     0.000003  g :     0.000038
      g+1     :     0.000001
      g-1     :     0.000005
      g+2     :     0.000005
      g-2     :     0.000001
      g+3     :     0.000004
      g-3     :     0.000004
      g+4     :     0.000008
      g-4     :     0.000008
      h0      :     0.000000  h :     0.000000
      h+1     :     0.000000
      h-1     :     0.000000
      h+2     :     0.000000
      h-2     :     0.000000
      h+3     :     0.000000
      h-3     :     0.000000
      h+4     :     0.000000
      h-4     :     0.000000
      h+5     :     0.000000
      h-5     :     0.000000

SPIN
  0 Ins       :     0.000687  s :     0.000687
      pz      :     0.000001  p :     1.000001
      px      :     0.000147
      py      :     0.999852
      dz2     :    -0.000168  d :    -0.000665
      dxz     :     0.000003
      dyz     :     0.000005
      dx2y2   :    -0.000510
      dxy     :     0.000005
      f0      :    -0.000000  f :    -0.000001
      f+1     :    -0.000000
      f-1     :     0.000000
      f+2     :    -0.000000
      f-2     :    -0.000000
      f+3     :    -0.000001
      f-3     :     0.000001
      g0      :    -0.000002  g :    -0.000022
      g+1     :    -0.000000
      g-1     :    -0.000003
      g+2     :    -0.000003
      g-2     :    -0.000001
      g+3     :    -0.000003
      g-3     :    -0.000002
      g+4     :    -0.000004
      g-4     :    -0.000005
      h0      :     0.000000  h :     0.000000
      h+1     :     0.000000
      h-1     :     0.000000
      h+2     :     0.000000
      h-2     :     0.000000
      h+3     :     0.000000
      h-3     :     0.000000
      h+4     :     0.000000
      h-4     :     0.000000
      h+5     :     0.000000
      h-5     :     0.000000


                      *****************************
                      * MAYER POPULATION ANALYSIS *
                      *****************************

  NA   - Mulliken gross atomic population
  ZA   - Total nuclear charge
  QA   - Mulliken gross atomic charge
  VA   - Mayer's total valence
  BVA  - Mayer's bonded valence
  FA   - Mayer's free valence

  ATOM       NA         ZA         QA         VA         BVA        FA
  0 In    49.0000    49.0000     0.0000     1.0036     0.0000     1.0036

  Mayer bond orders larger than 0.100000


-------
TIMINGS
-------

Total SCF time: 0 days 0 hours 48 min 15 sec 

Total time                  ....    2895.333 sec
Sum of individual times     ....    2891.285 sec  ( 99.9%)

Fock matrix formation       ....    2888.838 sec  ( 99.8%)
  XC integration            ....       2.272 sec  (  0.1% of F)
    Basis function eval.    ....       0.179 sec  (  7.9% of XC)
    Density eval.           ....       0.137 sec  (  6.0% of XC)
    XC-Functional eval.     ....       0.150 sec  (  6.6% of XC)
    XC-Potential eval.      ....       0.084 sec  (  3.7% of XC)
Diagonalization             ....       0.150 sec  (  0.0%)
Density matrix formation    ....       0.007 sec  (  0.0%)
Population analysis         ....       0.114 sec  (  0.0%)
Initial guess               ....       0.485 sec  (  0.0%)
Orbital Transformation      ....       0.000 sec  (  0.0%)
Orbital Orthonormalization  ....       0.000 sec  (  0.0%)
DIIS solution               ....       0.192 sec  (  0.0%)
SOSCF solution              ....       0.451 sec  (  0.0%)
Grid generation             ....       1.048 sec  (  0.0%)

Maximum memory used throughout the entire SCF-calculation: 267.5 MB

-------------------------   --------------------
FINAL SINGLE POINT ENERGY     -5975.862890079484
-------------------------   --------------------


                            ***************************************
                            *     ORCA property calculations      *
                            ***************************************

                                    ---------------------
                                    Active property flags
                                    ---------------------
   (+) Dipole Moment


------------------------------------------------------------------------------
                       ORCA ELECTRIC PROPERTIES CALCULATION
------------------------------------------------------------------------------

Dipole Moment Calculation                       ... on
Quadrupole Moment Calculation                   ... off
Polarizability Calculation                      ... off
GBWName                                         ... In_ano-r3_pbe.gbw
Electron density                                ... In_ano-r3_pbe.scfp
The origin for moment calculation is the CENTER OF MASS  = ( 0.000000,  0.000000  0.000000)

-------------
DIPOLE MOMENT
-------------
                                X             Y             Z
Electronic contribution:      0.00000       0.00000       0.00000
Nuclear contribution   :      0.00000       0.00000       0.00000
                        -----------------------------------------
Total Dipole Moment    :      0.00000       0.00000       0.00000
                        -----------------------------------------
Magnitude (a.u.)       :      0.00000
Magnitude (Debye)      :      0.00000



--------------------
Rotational spectrum 
--------------------
 
Rotational constants in cm-1:     0.000000     0.000000     0.000000 
Rotational constants in MHz :     0.000000     0.000000     0.000000 

 Dipole components along the rotational axes: 
x,y,z [a.u.] :     0.000000     0.000000     0.000000 
x,y,z [Debye]:     0.000000     0.000000     0.000000 

 

Timings for individual modules:

Sum of individual times         ...     2938.076 sec (=  48.968 min)
GTO integral calculation        ...       33.620 sec (=   0.560 min)   1.1 %
Relativistic integrals          ...        3.776 sec (=   0.063 min)   0.1 %
SCF iterations                  ...     2900.680 sec (=  48.345 min)  98.7 %
                             ****ORCA TERMINATED NORMALLY****
TOTAL RUN TIME: 0 days 0 hours 49 minutes 9 seconds 658 msec
