
                                 *****************
                                 * O   R   C   A *
                                 *****************

                                            #,                                       
                                            ###                                      
                                            ####                                     
                                            #####                                    
                                            ######                                   
                                           ########,                                 
                                     ,,################,,,,,                         
                               ,,#################################,,                 
                          ,,##########################################,,             
                       ,#########################################, ''#####,          
                    ,#############################################,,   '####,        
                  ,##################################################,,,,####,       
                ,###########''''           ''''###############################       
              ,#####''   ,,,,##########,,,,          '''####'''          '####       
            ,##' ,,,,###########################,,,                        '##       
           ' ,,###''''                  '''############,,,                           
         ,,##''                                '''############,,,,        ,,,,,,###''
      ,#''                                            '''#######################'''  
     '                                                          ''''####''''         
             ,#######,   #######,   ,#######,      ##                                
            ,#'     '#,  ##    ##  ,#'     '#,    #''#        ######   ,####,        
            ##       ##  ##   ,#'  ##            #'  '#       #        #'  '#        
            ##       ##  #######   ##           ,######,      #####,   #    #        
            '#,     ,#'  ##    ##  '#,     ,#' ,#      #,         ##   #,  ,#        
             '#######'   ##     ##  '#######'  #'      '#     #####' # '####'        



                  #######################################################
                  #                        -***-                        #
                  #          Department of theory and spectroscopy      #
                  #    Directorship and core code : Frank Neese         #
                  #        Max Planck Institute fuer Kohlenforschung    #
                  #                Kaiser Wilhelm Platz 1               #
                  #                 D-45470 Muelheim/Ruhr               #
                  #                      Germany                        #
                  #                                                     #
                  #                  All rights reserved                #
                  #                        -***-                        #
                  #######################################################


                         Program Version 5.0.1 -  RELEASE  -


 With contributions from (in alphabetic order):
   Daniel Aravena         : Magnetic Suceptibility
   Michael Atanasov       : Ab Initio Ligand Field Theory (pilot matlab implementation)
   Alexander A. Auer      : GIAO ZORA, VPT2 properties, NMR spectrum
   Ute Becker             : Parallelization
   Giovanni Bistoni       : ED, misc. LED, open-shell LED, HFLD
   Martin Brehm           : Molecular dynamics
   Dmytro Bykov           : SCF Hessian
   Vijay G. Chilkuri      : MRCI spin determinant printing, contributions to CSF-ICE
   Dipayan Datta          : RHF DLPNO-CCSD density
   Achintya Kumar Dutta   : EOM-CC, STEOM-CC
   Dmitry Ganyushin       : Spin-Orbit,Spin-Spin,Magnetic field MRCI
   Miquel Garcia          : C-PCM and meta-GGA Hessian, CC/C-PCM, Gaussian charge scheme
   Yang Guo               : DLPNO-NEVPT2, F12-NEVPT2, CIM, IAO-localization
   Andreas Hansen         : Spin unrestricted coupled pair/coupled cluster methods
   Benjamin Helmich-Paris : MC-RPA, TRAH-SCF, COSX integrals
   Lee Huntington         : MR-EOM, pCC
   Robert Izsak           : Overlap fitted RIJCOSX, COSX-SCS-MP3, EOM
   Marcus Kettner         : VPT2
   Christian Kollmar      : KDIIS, OOCD, Brueckner-CCSD(T), CCSD density, CASPT2, CASPT2-K
   Simone Kossmann        : Meta GGA functionals, TD-DFT gradient, OOMP2, MP2 Hessian
   Martin Krupicka        : Initial AUTO-CI
   Lucas Lang             : DCDCAS
   Marvin Lechner         : AUTO-CI (C++ implementation), FIC-MRCC
   Dagmar Lenk            : GEPOL surface, SMD
   Dimitrios Liakos       : Extrapolation schemes; Compound Job, initial MDCI parallelization
   Dimitrios Manganas     : Further ROCIS development; embedding schemes
   Dimitrios Pantazis     : SARC Basis sets
   Anastasios Papadopoulos: AUTO-CI, single reference methods and gradients
   Taras Petrenko         : DFT Hessian,TD-DFT gradient, ASA, ECA, R-Raman, ABS, FL, XAS/XES, NRVS
   Peter Pinski           : DLPNO-MP2, DLPNO-MP2 Gradient
   Christoph Reimann      : Effective Core Potentials
   Marius Retegan         : Local ZFS, SOC
   Christoph Riplinger    : Optimizer, TS searches, QM/MM, DLPNO-CCSD(T), (RO)-DLPNO pert. Triples
   Tobias Risthaus        : Range-separated hybrids, TD-DFT gradient, RPA, STAB
   Michael Roemelt        : Original ROCIS implementation
   Masaaki Saitow         : Open-shell DLPNO-CCSD energy and density
   Barbara Sandhoefer     : DKH picture change effects
   Avijit Sen             : IP-ROCIS
   Kantharuban Sivalingam : CASSCF convergence, NEVPT2, FIC-MRCI
   Bernardo de Souza      : ESD, SOC TD-DFT
   Georgi Stoychev        : AutoAux, RI-MP2 NMR, DLPNO-MP2 response
   Willem Van den Heuvel  : Paramagnetic NMR
   Boris Wezisla          : Elementary symmetry handling
   Frank Wennmohs         : Technical directorship


 We gratefully acknowledge several colleagues who have allowed us to
 interface, adapt or use parts of their codes:
   Stefan Grimme, W. Hujo, H. Kruse, P. Pracht,  : VdW corrections, initial TS optimization,
                  C. Bannwarth, S. Ehlert          DFT functionals, gCP, sTDA/sTD-DF
   Ed Valeev, F. Pavosevic, A. Kumar             : LibInt (2-el integral package), F12 methods
   Garnet Chan, S. Sharma, J. Yang, R. Olivares  : DMRG
   Ulf Ekstrom                                   : XCFun DFT Library
   Mihaly Kallay                                 : mrcc  (arbitrary order and MRCC methods)
   Jiri Pittner, Ondrej Demel                    : Mk-CCSD
   Frank Weinhold                                : gennbo (NPA and NBO analysis)
   Christopher J. Cramer and Donald G. Truhlar   : smd solvation model
   Lars Goerigk                                  : TD-DFT with DH, B97 family of functionals
   V. Asgeirsson, H. Jonsson                     : NEB implementation
   FAccTs GmbH                                   : IRC, NEB, NEB-TS, DLPNO-Multilevel, CI-OPT
                                                   MM, QMMM, 2- and 3-layer-ONIOM, Crystal-QMMM,
                                                   LR-CPCM, SF, NACMEs, symmetry and pop. for TD-DFT,
                                                   nearIR, NL-DFT gradient (VV10), updates on ESD,
                                                   ML-optimized integration grids
   S Lehtola, MJT Oliveira, MAL Marques          : LibXC Library
   Liviu Ungur et al                             : ANISO software


 Your calculation uses the libint2 library for the computation of 2-el integrals
 For citations please refer to: http://libint.valeyev.net

 Your ORCA version has been built with support for libXC version: 5.1.0
 For citations please refer to: https://tddft.org/programs/libxc/

 This ORCA versions uses:
   CBLAS   interface :  Fast vector & matrix operations
   LAPACKE interface :  Fast linear algebra routines
   SCALAPACK package :  Parallel linear algebra routines
   Shared memory     :  Shared parallel matrices
   BLAS/LAPACK       :  OpenBLAS 0.3.15  USE64BITINT DYNAMIC_ARCH NO_AFFINITY Haswell SINGLE_THREADED
        Core in use  :  Haswell
   Copyright (c) 2011-2014, The OpenBLAS Project


SCAN-COORDS

Reading of a custom basis requested
Basis file         : Mo_ano-rcc-vqzp.basis
READING GTO-BASIS: MOLYBDENUM
Basis successfully read

================================================================================

----- Orbital basis set information -----
================================================================================
                                        WARNINGS
                       Please study these warnings very carefully!
================================================================================


INFO   : the flag for use of the SHARK integral package has been found!

================================================================================
                                       INPUT FILE
================================================================================
NAME = Mo_ano-rcc-vqzp_pbe.inp
|  1> !uks pbe nori verytightscf soscf notrah defgrid3
|  2> 
|  3> %pal
|  4>   nprocs 32
|  5> end
|  6> %coords
|  7>   charge 0
|  8>   mult 7
|  9>   units bohrs
| 10>   coords
| 11>     Mo 0.0 0.0 0.0
| 12>   end
| 13> end
| 14> %basis
| 15>   gtoname "Mo_ano-rcc-vqzp.basis"
| 16>   delECP Mo
| 17> end
| 18> %rel
| 19>   method zora
| 20>   modelpot 1, 0, 0, 0
| 21>   c 137.035999084
| 22> endd                         ****END OF INPUT****
================================================================================

                       ****************************
                       * Single Point Calculation *
                       ****************************

---------------------------------
CARTESIAN COORDINATES (ANGSTROEM)
---------------------------------
  Mo     0.000000    0.000000    0.000000

----------------------------
CARTESIAN COORDINATES (A.U.)
----------------------------
  NO LB      ZA    FRAG     MASS         X           Y           Z
   0 Mo   42.0000    0    95.940    0.000000    0.000000    0.000000

--------------------------------
INTERNAL COORDINATES (ANGSTROEM)
--------------------------------
 Mo     0   0   0     0.000000000000     0.00000000     0.00000000

---------------------------
INTERNAL COORDINATES (A.U.)
---------------------------
 Mo     0   0   0     0.000000000000     0.00000000     0.00000000

---------------------
BASIS SET INFORMATION
---------------------
There are 1 groups of distinct atoms

 Group   1 Type Mo  : 168s126p65d18f8g2h contracted to 8s7p5d3f2g1h pattern {2121212121212121/18181818181818/1313131313/666/44/2}

Atom   0Mo   basis set group =>   1


           ************************************************************
           *        Program running with 32 parallel MPI-processes    *
           *              working on a common directory               *
           ************************************************************
------------------------------------------------------------------------------
                           ORCA GTO INTEGRAL CALCULATION
------------------------------------------------------------------------------
------------------------------------------------------------------------------
                   ___                                                        
                  /   \      - P O W E R E D   B Y -                         
                 /     \                                                     
                 |  |  |   _    _      __       _____    __    __             
                 |  |  |  | |  | |    /  \     |  _  \  |  |  /  |          
                  \  \/   | |  | |   /    \    | | | |  |  | /  /          
                 / \  \   | |__| |  /  /\  \   | |_| |  |  |/  /          
                |  |  |   |  __  | /  /__\  \  |    /   |      \           
                |  |  |   | |  | | |   __   |  |    \   |  |\   \          
                \     /   | |  | | |  |  |  |  | |\  \  |  | \   \       
                 \___/    |_|  |_| |__|  |__|  |_| \__\ |__|  \__/        
                                                                              
                      - O R C A' S   B I G   F R I E N D -                    
                                      &                                       
                       - I N T E G R A L  F E E D E R -                       
                                                                              
 v1 FN, 2020, v2 2021                                                         
------------------------------------------------------------------------------


Reading SHARK input file Mo_ano-rcc-vqzp_pbe.SHARKINP.tmp ... ok
----------------------
SHARK INTEGRAL PACKAGE
----------------------

Number of atoms                             ...      1
Number of basis functions                   ...    104
Number of shells                            ...     26
Maximum angular momentum                    ...      5
Integral batch strategy                     ... SHARK/LIBINT Hybrid
RI-J (if used) integral strategy            ... SPLIT-RIJ (Revised 2003 algorithm where possible)
Printlevel                                  ...      1
Contraction scheme used                     ... SEGMENTED contraction
Coulomb Range Separation                    ... NOT USED
Exchange Range Separation                   ... NOT USED
Finite Nucleus Model                        ... NOT USED
Auxiliary Coulomb fitting basis             ... NOT available
Auxiliary J/K fitting basis                 ... NOT available
Auxiliary Correlation fitting basis         ... NOT available
Auxiliary 'external' fitting basis          ... NOT available
Integral threshold                          ...     1.000000e-12
Primitive cut-off                           ...     1.000000e-14
Primitive pair pre-selection threshold      ...     1.000000e-14

Calculating pre-screening integrals         ... done ( 25.8 sec) Dimension = 26
Organizing shell pair data                  ... done (  0.5 sec)
Shell pair information
Total number of shell pairs                 ...       351
Shell pairs after pre-screening             ...       351
Total number of primitive shell pairs       ...     78277
Primitive shell pairs kept                  ...     78277
          la=0 lb=0:     36 shell pairs
          la=1 lb=0:     56 shell pairs
          la=1 lb=1:     28 shell pairs
          la=2 lb=0:     40 shell pairs
          la=2 lb=1:     35 shell pairs
          la=2 lb=2:     15 shell pairs
          la=3 lb=0:     24 shell pairs
          la=3 lb=1:     21 shell pairs
          la=3 lb=2:     15 shell pairs
          la=3 lb=3:      6 shell pairs
          la=4 lb=0:     16 shell pairs
          la=4 lb=1:     14 shell pairs
          la=4 lb=2:     10 shell pairs
          la=4 lb=3:      6 shell pairs
          la=4 lb=4:      3 shell pairs
          la=5 lb=0:      8 shell pairs
          la=5 lb=1:      7 shell pairs
          la=5 lb=2:      5 shell pairs
          la=5 lb=3:      3 shell pairs
          la=5 lb=4:      2 shell pairs
          la=5 lb=5:      1 shell pairs

Calculating one electron integrals          ... done (  0.2 sec)
Calculating Nuclear repulsion               ... done (  0.0 sec) ENN=      0.000000000000 Eh

SHARK setup successfully completed in  26.9 seconds

Maximum memory used throughout the entire GTOINT-calculation: 279.7 MB


           ************************************************************
           *        Program running with 32 parallel MPI-processes    *
           *              working on a common directory               *
           ************************************************************
------------------------------------------------------------------------------
                          ORCA RELATIVISTIC HAMILTONIAN
------------------------------------------------------------------------------

Relativistic Method            ... ZORA(MP)
Treatment of potential         ... Van Wuellen
Nucleus model                  ... Point Nucleus
Speed of light used            ... 137.03599908400000


            *************************************************
            *         ZERO ORDER REGULAR APPROXIMATION      *
            *                     ZORA(MP)                  *
            *            Programmed by FN according to      *
            *                   C. van Wuellen              *
            *       J. Chem. Phys. (1998) vol 109, 392-399  *
            *************************************************

Terms included in model potential: +V(e,N)
Basis function cutoff value   ... 1.000000e-12
Loading the fitted atomic densities  (DKH4)  ... done
Calculating the cutoffs                      ... done
Number of fit functions                      ... 28
Setting up the integration grid ... done

Maximum memory used throughout the entire REL-calculation: 23.6 MB


           ************************************************************
           *        Program running with 32 parallel MPI-processes    *
           *              working on a common directory               *
           ************************************************************
-------------------------------------------------------------------------------
                                 ORCA SCF
-------------------------------------------------------------------------------

------------
SCF SETTINGS
------------
Hamiltonian:
 Density Functional     Method          .... DFT(GTOs)
 Exchange Functional    Exchange        .... PBE
   PBE kappa parameter   XKappa         ....  0.804000
   PBE mue parameter    XMuePBE         ....  0.219520
 Correlation Functional Correlation     .... PBE
   PBE beta parameter  CBetaPBE         ....  0.066725
 LDA part of GGA corr.  LDAOpt          .... PW91-LDA
 Gradients option       PostSCFGGA      .... off
   Density functional embedding theory  .... OFF
   NL short-range parameter             ....  6.400000

Relativistic Settings:
 Scalar relativistic method             .... ZORA
 Speed of light used       Velit        ....       137.035999
Orbital energies will be scaled


General Settings:
 Integral files         IntName         .... Mo_ano-rcc-vqzp_pbe
 Hartree-Fock type      HFTyp           .... UHF
 Total Charge           Charge          ....    0
 Multiplicity           Mult            ....    7
 Number of Electrons    NEL             ....   42
 Basis Dimension        Dim             ....  104
 Nuclear Repulsion      ENuc            ....      0.0000000000 Eh

Convergence Acceleration:
 DIIS                   CNVDIIS         .... on
   Start iteration      DIISMaxIt       ....    12
   Startup error        DIISStart       ....  0.200000
   # of expansion vecs  DIISMaxEq       ....     5
   Bias factor          DIISBfac        ....   1.050
   Max. coefficient     DIISMaxC        ....  10.000
 Trust-Rad. Augm. Hess. CNVTRAH         .... off
 SOSCF                  CNVSOSCF        .... on
   Start iteration      SOSCFMaxIt      ....   150
   Startup grad/error   SOSCFStart      ....  0.003300
 Level Shifting         CNVShift        .... on
   Level shift para.    LevelShift      ....    0.2500
   Turn off err/grad.   ShiftErr        ....    0.0010
 Zerner damping         CNVZerner       .... off
 Static damping         CNVDamp         .... on
   Fraction old density DampFac         ....    0.7000
   Max. Damping (<1)    DampMax         ....    0.9800
   Min. Damping (>=0)   DampMin         ....    0.0000
   Turn off err/grad.   DampErr         ....    0.1000
 Fernandez-Rico         CNVRico         .... off

SCF Procedure:
 Maximum # iterations   MaxIter         ....   125
 SCF integral mode      SCFMode         .... Direct
   Integral package                     .... SHARK and LIBINT hybrid scheme
 Reset frequency        DirectResetFreq ....    20
 Integral Threshold     Thresh          ....  1.000e-12 Eh
 Primitive CutOff       TCut            ....  1.000e-14 Eh

Convergence Tolerance:
 Convergence Check Mode ConvCheckMode   .... Total+1el-Energy
 Convergence forced     ConvForced      .... 0
 Energy Change          TolE            ....  1.000e-09 Eh
 1-El. energy change                    ....  1.000e-06 Eh
 Orbital Gradient       TolG            ....  2.000e-06
 Orbital Rotation angle TolX            ....  2.000e-06
 DIIS Error             TolErr          ....  1.000e-08


Diagonalization of the overlap matrix:
Smallest eigenvalue                        ... 1.000e+00
Time for diagonalization                   ...    0.014 sec
Threshold for overlap eigenvalues          ... 1.000e-08
Number of eigenvalues below threshold      ... 0
Time for construction of square roots      ...    0.048 sec
Total time needed                          ...    0.063 sec

Time for model grid setup =    0.261 sec

------------------------------
INITIAL GUESS: MODEL POTENTIAL
------------------------------
Loading ZORA relativistic densities                ... done
Calculating cut-offs                               ... done
Initializing the effective Hamiltonian             ... done
Setting up the integral package (SHARK)            ... done
Starting the Coulomb interaction                   ... done (   0.7 sec)
Reading the grid                                   ... done
Mapping shells                                     ... done
Starting the XC term evaluation                    ... done (   0.1 sec)
  promolecular density results
     # of electrons  =     42.000730025
     EX              =   -124.406686763
     EC              =     -2.107482186
     EX+EC           =   -126.514168949
Transforming the Hamiltonian                       ... done (   0.0 sec)
Diagonalizing the Hamiltonian                      ... done (   0.0 sec)
Back transforming the eigenvectors                 ... done (   0.0 sec)
Now organizing SCF variables                       ... done
                      ------------------
                      INITIAL GUESS DONE (   1.1 sec)
                      ------------------
-------------------
DFT GRID GENERATION
-------------------

General Integration Accuracy     IntAcc      ... 4.959
Radial Grid Type                 RadialGrid  ... OptM3 with GC (2021)
Angular Grid (max. ang.)         AngularGrid ... 6 (Lebedev-590)
Angular grid pruning method      GridPruning ... 4 (adaptive)
Weight generation scheme         WeightScheme... Becke
Basis function cutoff            BFCut       ... 1.0000e-12
Integration weight cutoff        WCut        ... 1.0000e-14
Angular grids for H and He will be reduced by one unit
Partially contracted basis set               ... off
Rotationally invariant grid construction     ... off

Total number of grid points                  ...    65888
Total number of batches                      ...     1030
Average number of points per batch           ...       63
Average number of grid points per atom       ...    65888
Time for grid setup =    4.649 sec

--------------
SCF ITERATIONS
--------------
ITER       Energy         Delta-E        Max-DP      RMS-DP      [F,P]     Damp
               ***  Starting incremental Fock matrix formation  ***
  0  -4094.1521239654   0.000000000000 0.01895605  0.00035841  0.1633270 0.7000
  1  -4094.1616064588  -0.009482493399 0.01774027  0.00029863  0.1092643 0.7000
                               ***Turning on DIIS***
  2  -4094.1658444282  -0.004237969415 0.04431329  0.00061116  0.0736065 0.0000
  3  -4094.1722118253  -0.006367397119 0.01854813  0.00031049  0.0222506 0.0000
  4  -4094.1734034183  -0.001191593030 0.00243397  0.00005407  0.0189732 0.0000
  5  -4094.1737451680  -0.000341749719 0.00208898  0.00003653  0.0055170 0.0000
                      *** Initiating the SOSCF procedure ***
                           *** Shutting down DIIS ***
                      *** Re-Reading the Fockian *** 
                      *** Removing any level shift *** 
ITER      Energy       Delta-E        Grad      Rot      Max-DP    RMS-DP
  6  -4094.17381323  -0.0000680656  0.000252  0.000252  0.001285  0.000017
               *** Restarting incremental Fock matrix formation ***
  7  -4094.17381495  -0.0000017206  0.000189  0.000536  0.000546  0.000010
  8  -4094.17381454   0.0000004115  0.000283  0.000298  0.000311  0.000006
  9  -4094.17381530  -0.0000007621  0.000012  0.000017  0.000017  0.000000
 10  -4094.17381531  -0.0000000005  0.000006  0.000004  0.000004  0.000000
                  ***Gradient check signals convergence***
              ***Rediagonalizing the Fockian in SOSCF/NRSCF***

               *****************************************************
               *                     SUCCESS                       *
               *           SCF CONVERGED AFTER  11 CYCLES          *
               *****************************************************


----------------
TOTAL SCF ENERGY
----------------

Total Energy       :        -4094.17381531 Eh         -111408.13339 eV

Components:
Nuclear Repulsion  :            0.00000000 Eh               0.00000 eV
Electronic Energy  :        -4094.17381531 Eh         -111408.13339 eV
One Electron Energy:        -5633.35588407 Eh         -153291.40679 eV
Two Electron Energy:         1539.18206877 Eh           41883.27340 eV

Virial components:
Potential Energy   :        -8396.40473938 Eh         -228477.78854 eV
Kinetic Energy     :         4302.23092407 Eh          117069.65515 eV
Virial Ratio       :            1.95163972


DFT components:
N(Alpha)           :       23.999999996705 electrons
N(Beta)            :       17.999999996452 electrons
N(Total)           :       41.999999993157 electrons
E(X)               :     -122.568293573913 Eh       
E(C)               :       -2.074507941793 Eh       
E(XC)              :     -124.642801515706 Eh       
DFET-embed. en.    :        0.000000000000 Eh       

---------------
SCF CONVERGENCE
---------------

  Last Energy change         ...   -9.7316e-11  Tolerance :   1.0000e-09
  Last MAX-Density change    ...    1.3005e-07  Tolerance :   1.0000e-08
  Last RMS-Density change    ...    1.2271e-09  Tolerance :   1.0000e-09
  Last Orbital Gradient      ...    1.0580e-07  Tolerance :   2.0000e-06
  Last Orbital Rotation      ...    1.3424e-07  Tolerance :   2.0000e-06

             **** THE GBW FILE WAS UPDATED (Mo_ano-rcc-vqzp_pbe.gbw) ****
             **** DENSITY Mo_ano-rcc-vqzp_pbe.scfp WAS UPDATED ****
             **** ENERGY FILE WAS UPDATED (Mo_ano-rcc-vqzp_pbe.en.tmp) ****
----------------------
UHF SPIN CONTAMINATION
----------------------

Warning: in a DFT calculation there is little theoretical justification to 
         calculate <S**2> as in Hartree-Fock theory. We will do it anyways
         but you should keep in mind that the values have only limited relevance

Expectation value of <S**2>     :    12.000639
Ideal value S*(S+1) for S=3.0   :    12.000000
Deviation                       :     0.000639

             **** THE GBW FILE WAS UPDATED (Mo_ano-rcc-vqzp_pbe.gbw) ****
             **** DENSITY Mo_ano-rcc-vqzp_pbe.scfp WAS UPDATED ****
----------------
ORBITAL ENERGIES
----------------
                 SPIN UP ORBITALS
  NO   OCC          E(Eh)            E(eV) 
   0   1.0000    -744.892601    -20269.5582 
   1   1.0000    -103.452393     -2815.0827 
   2   1.0000     -92.855660     -2526.7310 
   3   1.0000     -92.855660     -2526.7310 
   4   1.0000     -92.855660     -2526.7310 
   5   1.0000     -17.524366      -476.8622 
   6   1.0000     -14.000258      -380.9664 
   7   1.0000     -14.000258      -380.9664 
   8   1.0000     -14.000258      -380.9664 
   9   1.0000      -8.141040      -221.5290 
  10   1.0000      -8.141040      -221.5290 
  11   1.0000      -8.141040      -221.5290 
  12   1.0000      -8.141040      -221.5290 
  13   1.0000      -8.141040      -221.5290 
  14   1.0000      -2.380353       -64.7727 
  15   1.0000      -1.442520       -39.2530 
  16   1.0000      -1.442520       -39.2530 
  17   1.0000      -1.442520       -39.2530 
  18   1.0000      -0.168524        -4.5858 
  19   1.0000      -0.166667        -4.5352 
  20   1.0000      -0.166667        -4.5352 
  21   1.0000      -0.166667        -4.5352 
  22   1.0000      -0.166667        -4.5352 
  23   1.0000      -0.166667        -4.5352 
  24   0.0000      -0.045144        -1.2284 
  25   0.0000      -0.045144        -1.2284 
  26   0.0000      -0.045144        -1.2284 
  27   0.0000       0.018827         0.5123 
  28   0.0000       0.115484         3.1425 
  29   0.0000       0.115484         3.1425 
  30   0.0000       0.115484         3.1425 
  31   0.0000       0.115484         3.1425 
  32   0.0000       0.115484         3.1425 
  33   0.0000       0.183478         4.9927 
  34   0.0000       0.183478         4.9927 
  35   0.0000       0.183478         4.9927 
  36   0.0000       0.518050        14.0969 
  37   0.0000       0.518050        14.0969 
  38   0.0000       0.518050        14.0969 
  39   0.0000       0.518050        14.0969 
  40   0.0000       0.518050        14.0969 
  41   0.0000       0.518050        14.0969 
  42   0.0000       0.518050        14.0969 
  43   0.0000       0.538382        14.6501 
  44   0.0000       0.733789        19.9674 
  45   0.0000       0.733789        19.9674 
  46   0.0000       0.733789        19.9674 
  47   0.0000       0.733789        19.9674 
  48   0.0000       0.733789        19.9674 
  49   0.0000       1.463253        39.8171 
  50   0.0000       1.463253        39.8171 
  51   0.0000       1.463253        39.8171 
  52   0.0000       1.626826        44.2682 
  53   0.0000       1.626826        44.2682 
  54   0.0000       1.626826        44.2682 
  55   0.0000       1.626826        44.2682 
  56   0.0000       1.626826        44.2682 
  57   0.0000       1.626826        44.2682 
  58   0.0000       1.626826        44.2682 
  59   0.0000       1.788566        48.6694 
  60   0.0000       1.788566        48.6694 
  61   0.0000       1.788566        48.6694 
  62   0.0000       1.788566        48.6694 
  63   0.0000       1.788566        48.6694 
  64   0.0000       1.788566        48.6694 
  65   0.0000       1.788566        48.6694 
  66   0.0000       1.788566        48.6694 
  67   0.0000       1.788566        48.6694 
  68   0.0000       3.008828        81.8744 
  69   0.0000       3.008828        81.8744 
  70   0.0000       3.008828        81.8744 
  71   0.0000       3.008828        81.8744 
  72   0.0000       3.008828        81.8744 
  73   0.0000       3.819062       103.9220 
  74   0.0000       4.573940       124.4632 
  75   0.0000       4.573940       124.4632 
  76   0.0000       4.573940       124.4632 
  77   0.0000       4.573940       124.4632 
  78   0.0000       4.573940       124.4632 
  79   0.0000       4.573940       124.4632 
  80   0.0000       4.573940       124.4632 
  81   0.0000       5.507431       149.8648 
  82   0.0000       5.507431       149.8648 
  83   0.0000       5.507431       149.8648 
  84   0.0000       5.507431       149.8648 
  85   0.0000       5.507431       149.8648 
  86   0.0000       5.507431       149.8648 
  87   0.0000       5.507431       149.8648 
  88   0.0000       5.507431       149.8648 
  89   0.0000       5.507431       149.8648 
  90   0.0000       6.111446       166.3009 
  91   0.0000       6.111446       166.3009 
  92   0.0000       6.111446       166.3009 
  93   0.0000       6.111446       166.3009 
  94   0.0000       6.111446       166.3009 
  95   0.0000       6.111446       166.3009 
  96   0.0000       6.111446       166.3009 
  97   0.0000       6.111446       166.3009 
  98   0.0000       6.111446       166.3009 
  99   0.0000       6.111446       166.3009 
 100   0.0000       6.111446       166.3009 
 101   0.0000       6.221564       169.2974 
 102   0.0000       6.221564       169.2974 
 103   0.0000       6.221564       169.2974 

                 SPIN DOWN ORBITALS
  NO   OCC          E(Eh)            E(eV) 
   0   1.0000    -744.892595    -20269.5580 
   1   1.0000    -103.436220     -2814.6426 
   2   1.0000     -92.843659     -2526.4044 
   3   1.0000     -92.843659     -2526.4044 
   4   1.0000     -92.843659     -2526.4044 
   5   1.0000     -17.515027      -476.6081 
   6   1.0000     -13.989818      -380.6823 
   7   1.0000     -13.989818      -380.6823 
   8   1.0000     -13.989818      -380.6823 
   9   1.0000      -8.125332      -221.1015 
  10   1.0000      -8.125332      -221.1015 
  11   1.0000      -8.125332      -221.1015 
  12   1.0000      -8.125332      -221.1015 
  13   1.0000      -8.125332      -221.1015 
  14   1.0000      -2.281708       -62.0884 
  15   1.0000      -1.332170       -36.2502 
  16   1.0000      -1.332170       -36.2502 
  17   1.0000      -1.332170       -36.2502 
  18   0.0000      -0.059649        -1.6231 
  19   0.0000      -0.040705        -1.1076 
  20   0.0000      -0.040705        -1.1076 
  21   0.0000      -0.040705        -1.1076 
  22   0.0000      -0.040705        -1.1076 
  23   0.0000      -0.040705        -1.1076 
  24   0.0000       0.049772         1.3544 
  25   0.0000       0.049772         1.3544 
  26   0.0000       0.049772         1.3544 
  27   0.0000       0.074279         2.0212 
  28   0.0000       0.200080         5.4445 
  29   0.0000       0.200080         5.4445 
  30   0.0000       0.200080         5.4445 
  31   0.0000       0.200080         5.4445 
  32   0.0000       0.200080         5.4445 
  33   0.0000       0.269616         7.3366 
  34   0.0000       0.269616         7.3366 
  35   0.0000       0.269616         7.3366 
  36   0.0000       0.634682        17.2706 
  37   0.0000       0.634682        17.2706 
  38   0.0000       0.634682        17.2706 
  39   0.0000       0.634682        17.2706 
  40   0.0000       0.634682        17.2706 
  41   0.0000       0.634682        17.2706 
  42   0.0000       0.634682        17.2706 
  43   0.0000       0.647829        17.6283 
  44   0.0000       0.831228        22.6189 
  45   0.0000       0.831228        22.6189 
  46   0.0000       0.831228        22.6189 
  47   0.0000       0.831228        22.6189 
  48   0.0000       0.831228        22.6189 
  49   0.0000       1.578048        42.9409 
  50   0.0000       1.578048        42.9409 
  51   0.0000       1.578048        42.9409 
  52   0.0000       1.761893        47.9435 
  53   0.0000       1.761893        47.9435 
  54   0.0000       1.761893        47.9435 
  55   0.0000       1.761893        47.9435 
  56   0.0000       1.761893        47.9435 
  57   0.0000       1.761893        47.9435 
  58   0.0000       1.761893        47.9435 
  59   0.0000       1.919536        52.2332 
  60   0.0000       1.919536        52.2332 
  61   0.0000       1.919536        52.2332 
  62   0.0000       1.919536        52.2332 
  63   0.0000       1.919536        52.2332 
  64   0.0000       1.919536        52.2332 
  65   0.0000       1.919536        52.2332 
  66   0.0000       1.919536        52.2332 
  67   0.0000       1.919536        52.2332 
  68   0.0000       3.097482        84.2868 
  69   0.0000       3.097482        84.2868 
  70   0.0000       3.097482        84.2868 
  71   0.0000       3.097482        84.2868 
  72   0.0000       3.097482        84.2868 
  73   0.0000       3.895437       106.0002 
  74   0.0000       4.665612       126.9578 
  75   0.0000       4.665612       126.9578 
  76   0.0000       4.665612       126.9578 
  77   0.0000       4.665612       126.9578 
  78   0.0000       4.665612       126.9578 
  79   0.0000       4.665612       126.9578 
  80   0.0000       4.665612       126.9578 
  81   0.0000       5.621144       152.9591 
  82   0.0000       5.621144       152.9591 
  83   0.0000       5.621144       152.9591 
  84   0.0000       5.621144       152.9591 
  85   0.0000       5.621144       152.9591 
  86   0.0000       5.621144       152.9591 
  87   0.0000       5.621144       152.9591 
  88   0.0000       5.621144       152.9591 
  89   0.0000       5.621144       152.9591 
  90   0.0000       6.252279       170.1332 
  91   0.0000       6.252279       170.1332 
  92   0.0000       6.252279       170.1332 
  93   0.0000       6.252279       170.1332 
  94   0.0000       6.252279       170.1332 
  95   0.0000       6.252279       170.1332 
  96   0.0000       6.252279       170.1332 
  97   0.0000       6.252279       170.1332 
  98   0.0000       6.252279       170.1332 
  99   0.0000       6.252279       170.1332 
 100   0.0000       6.252279       170.1332 
 101   0.0000       6.286951       171.0766 
 102   0.0000       6.286951       171.0766 
 103   0.0000       6.286951       171.0766 

                    ********************************
                    * MULLIKEN POPULATION ANALYSIS *
                    ********************************

--------------------------------------------
MULLIKEN ATOMIC CHARGES AND SPIN POPULATIONS
--------------------------------------------
   0 Mo:    0.000000    6.000000
Sum of atomic charges         :    0.0000000
Sum of atomic spin populations:    6.0000000

-----------------------------------------------------
MULLIKEN REDUCED ORBITAL CHARGES AND SPIN POPULATIONS
-----------------------------------------------------
CHARGE
  0 Mos       :     9.000000  s :     9.000000
      pz      :     6.000000  p :    18.000000
      px      :     6.000000
      py      :     6.000000
      dz2     :     3.000000  d :    15.000000
      dxz     :     3.000000
      dyz     :     3.000000
      dx2y2   :     3.000000
      dxy     :     3.000000
      f0      :     0.000000  f :     0.000000
      f+1     :     0.000000
      f-1     :     0.000000
      f+2     :     0.000000
      f-2     :     0.000000
      f+3     :     0.000000
      f-3     :     0.000000
      g0      :     0.000000  g :     0.000000
      g+1     :     0.000000
      g-1     :     0.000000
      g+2     :     0.000000
      g-2     :     0.000000
      g+3     :     0.000000
      g-3     :     0.000000
      g+4     :     0.000000
      g-4     :     0.000000
      h0      :     0.000000  h :     0.000000
      h+1     :     0.000000
      h-1     :     0.000000
      h+2     :     0.000000
      h-2     :     0.000000
      h+3     :     0.000000
      h-3     :     0.000000
      h+4     :     0.000000
      h-4     :     0.000000
      h+5     :     0.000000
      h-5     :     0.000000

SPIN
  0 Mos       :     1.000000  s :     1.000000
      pz      :    -0.000000  p :    -0.000000
      px      :     0.000000
      py      :    -0.000000
      dz2     :     1.000000  d :     5.000000
      dxz     :     1.000000
      dyz     :     1.000000
      dx2y2   :     1.000000
      dxy     :     1.000000
      f0      :     0.000000  f :     0.000000
      f+1     :     0.000000
      f-1     :     0.000000
      f+2     :     0.000000
      f-2     :     0.000000
      f+3     :     0.000000
      f-3     :     0.000000
      g0      :     0.000000  g :     0.000000
      g+1     :     0.000000
      g-1     :     0.000000
      g+2     :    -0.000000
      g-2     :     0.000000
      g+3     :     0.000000
      g-3     :     0.000000
      g+4     :     0.000000
      g-4     :     0.000000
      h0      :     0.000000  h :     0.000000
      h+1     :     0.000000
      h-1     :     0.000000
      h+2     :     0.000000
      h-2     :     0.000000
      h+3     :     0.000000
      h-3     :     0.000000
      h+4     :     0.000000
      h-4     :     0.000000
      h+5     :     0.000000
      h-5     :     0.000000


                     *******************************
                     * LOEWDIN POPULATION ANALYSIS *
                     *******************************

-------------------------------------------
LOEWDIN ATOMIC CHARGES AND SPIN POPULATIONS
-------------------------------------------
   0 Mo:   -0.000000    6.000000

----------------------------------------------------
LOEWDIN REDUCED ORBITAL CHARGES AND SPIN POPULATIONS
----------------------------------------------------
CHARGE
  0 Mos       :     9.000000  s :     9.000000
      pz      :     6.000000  p :    18.000000
      px      :     6.000000
      py      :     6.000000
      dz2     :     3.000000  d :    15.000000
      dxz     :     3.000000
      dyz     :     3.000000
      dx2y2   :     3.000000
      dxy     :     3.000000
      f0      :     0.000000  f :     0.000000
      f+1     :     0.000000
      f-1     :     0.000000
      f+2     :     0.000000
      f-2     :     0.000000
      f+3     :     0.000000
      f-3     :     0.000000
      g0      :     0.000000  g :     0.000000
      g+1     :     0.000000
      g-1     :     0.000000
      g+2     :     0.000000
      g-2     :     0.000000
      g+3     :     0.000000
      g-3     :     0.000000
      g+4     :     0.000000
      g-4     :     0.000000
      h0      :     0.000000  h :     0.000000
      h+1     :     0.000000
      h-1     :     0.000000
      h+2     :     0.000000
      h-2     :     0.000000
      h+3     :     0.000000
      h-3     :     0.000000
      h+4     :     0.000000
      h-4     :     0.000000
      h+5     :     0.000000
      h-5     :     0.000000

SPIN
  0 Mos       :     1.000000  s :     1.000000
      pz      :    -0.000000  p :    -0.000000
      px      :     0.000000
      py      :    -0.000000
      dz2     :     1.000000  d :     5.000000
      dxz     :     1.000000
      dyz     :     1.000000
      dx2y2   :     1.000000
      dxy     :     1.000000
      f0      :     0.000000  f :     0.000000
      f+1     :     0.000000
      f-1     :     0.000000
      f+2     :     0.000000
      f-2     :     0.000000
      f+3     :     0.000000
      f-3     :     0.000000
      g0      :     0.000000  g :     0.000000
      g+1     :     0.000000
      g-1     :     0.000000
      g+2     :    -0.000000
      g-2     :     0.000000
      g+3     :     0.000000
      g-3     :     0.000000
      g+4     :     0.000000
      g-4     :     0.000000
      h0      :     0.000000  h :     0.000000
      h+1     :     0.000000
      h-1     :     0.000000
      h+2     :     0.000000
      h-2     :     0.000000
      h+3     :     0.000000
      h-3     :     0.000000
      h+4     :     0.000000
      h-4     :     0.000000
      h+5     :     0.000000
      h-5     :     0.000000


                      *****************************
                      * MAYER POPULATION ANALYSIS *
                      *****************************

  NA   - Mulliken gross atomic population
  ZA   - Total nuclear charge
  QA   - Mulliken gross atomic charge
  VA   - Mayer's total valence
  BVA  - Mayer's bonded valence
  FA   - Mayer's free valence

  ATOM       NA         ZA         QA         VA         BVA        FA
  0 Mo    42.0000    42.0000    -0.0000     6.0013     0.0000     6.0013

  Mayer bond orders larger than 0.100000


-------
TIMINGS
-------

Total SCF time: 0 days 0 hours 15 min 33 sec 

Total time                  ....     933.717 sec
Sum of individual times     ....     932.678 sec  ( 99.9%)

Fock matrix formation       ....     926.535 sec  ( 99.2%)
  XC integration            ....       3.896 sec  (  0.4% of F)
    Basis function eval.    ....       0.223 sec  (  5.7% of XC)
    Density eval.           ....       0.167 sec  (  4.3% of XC)
    XC-Functional eval.     ....       0.117 sec  (  3.0% of XC)
    XC-Potential eval.      ....       0.158 sec  (  4.0% of XC)
Diagonalization             ....       0.149 sec  (  0.0%)
Density matrix formation    ....       0.006 sec  (  0.0%)
Population analysis         ....       0.085 sec  (  0.0%)
Initial guess               ....       0.813 sec  (  0.1%)
Orbital Transformation      ....       0.000 sec  (  0.0%)
Orbital Orthonormalization  ....       0.000 sec  (  0.0%)
DIIS solution               ....       0.125 sec  (  0.0%)
SOSCF solution              ....       0.056 sec  (  0.0%)
Grid generation             ....       4.910 sec  (  0.5%)

Maximum memory used throughout the entire SCF-calculation: 265.8 MB

-------------------------   --------------------
FINAL SINGLE POINT ENERGY     -4094.173815305377
-------------------------   --------------------


                            ***************************************
                            *     ORCA property calculations      *
                            ***************************************

                                    ---------------------
                                    Active property flags
                                    ---------------------
   (+) Dipole Moment


------------------------------------------------------------------------------
                       ORCA ELECTRIC PROPERTIES CALCULATION
------------------------------------------------------------------------------

Dipole Moment Calculation                       ... on
Quadrupole Moment Calculation                   ... off
Polarizability Calculation                      ... off
GBWName                                         ... Mo_ano-rcc-vqzp_pbe.gbw
Electron density                                ... Mo_ano-rcc-vqzp_pbe.scfp
The origin for moment calculation is the CENTER OF MASS  = ( 0.000000,  0.000000  0.000000)

-------------
DIPOLE MOMENT
-------------
                                X             Y             Z
Electronic contribution:      0.00000      -0.00000       0.00000
Nuclear contribution   :      0.00000       0.00000       0.00000
                        -----------------------------------------
Total Dipole Moment    :      0.00000      -0.00000       0.00000
                        -----------------------------------------
Magnitude (a.u.)       :      0.00000
Magnitude (Debye)      :      0.00000



--------------------
Rotational spectrum 
--------------------
 
Rotational constants in cm-1:     0.000000     0.000000     0.000000 
Rotational constants in MHz :     0.000000     0.000000     0.000000 

 Dipole components along the rotational axes: 
x,y,z [a.u.] :     0.000000    -0.000000     0.000000 
x,y,z [Debye]:     0.000000    -0.000000     0.000000 

 

Timings for individual modules:

Sum of individual times         ...      976.252 sec (=  16.271 min)
GTO integral calculation        ...       32.004 sec (=   0.533 min)   3.3 %
Relativistic integrals          ...        7.749 sec (=   0.129 min)   0.8 %
SCF iterations                  ...      936.499 sec (=  15.608 min)  95.9 %
                             ****ORCA TERMINATED NORMALLY****
TOTAL RUN TIME: 0 days 0 hours 16 minutes 23 seconds 892 msec
