
                                 *****************
                                 * O   R   C   A *
                                 *****************

                                            #,                                       
                                            ###                                      
                                            ####                                     
                                            #####                                    
                                            ######                                   
                                           ########,                                 
                                     ,,################,,,,,                         
                               ,,#################################,,                 
                          ,,##########################################,,             
                       ,#########################################, ''#####,          
                    ,#############################################,,   '####,        
                  ,##################################################,,,,####,       
                ,###########''''           ''''###############################       
              ,#####''   ,,,,##########,,,,          '''####'''          '####       
            ,##' ,,,,###########################,,,                        '##       
           ' ,,###''''                  '''############,,,                           
         ,,##''                                '''############,,,,        ,,,,,,###''
      ,#''                                            '''#######################'''  
     '                                                          ''''####''''         
             ,#######,   #######,   ,#######,      ##                                
            ,#'     '#,  ##    ##  ,#'     '#,    #''#        ######   ,####,        
            ##       ##  ##   ,#'  ##            #'  '#       #        #'  '#        
            ##       ##  #######   ##           ,######,      #####,   #    #        
            '#,     ,#'  ##    ##  '#,     ,#' ,#      #,         ##   #,  ,#        
             '#######'   ##     ##  '#######'  #'      '#     #####' # '####'        



                  #######################################################
                  #                        -***-                        #
                  #          Department of theory and spectroscopy      #
                  #    Directorship and core code : Frank Neese         #
                  #        Max Planck Institute fuer Kohlenforschung    #
                  #                Kaiser Wilhelm Platz 1               #
                  #                 D-45470 Muelheim/Ruhr               #
                  #                      Germany                        #
                  #                                                     #
                  #                  All rights reserved                #
                  #                        -***-                        #
                  #######################################################


                         Program Version 5.0.1 -  RELEASE  -


 With contributions from (in alphabetic order):
   Daniel Aravena         : Magnetic Suceptibility
   Michael Atanasov       : Ab Initio Ligand Field Theory (pilot matlab implementation)
   Alexander A. Auer      : GIAO ZORA, VPT2 properties, NMR spectrum
   Ute Becker             : Parallelization
   Giovanni Bistoni       : ED, misc. LED, open-shell LED, HFLD
   Martin Brehm           : Molecular dynamics
   Dmytro Bykov           : SCF Hessian
   Vijay G. Chilkuri      : MRCI spin determinant printing, contributions to CSF-ICE
   Dipayan Datta          : RHF DLPNO-CCSD density
   Achintya Kumar Dutta   : EOM-CC, STEOM-CC
   Dmitry Ganyushin       : Spin-Orbit,Spin-Spin,Magnetic field MRCI
   Miquel Garcia          : C-PCM and meta-GGA Hessian, CC/C-PCM, Gaussian charge scheme
   Yang Guo               : DLPNO-NEVPT2, F12-NEVPT2, CIM, IAO-localization
   Andreas Hansen         : Spin unrestricted coupled pair/coupled cluster methods
   Benjamin Helmich-Paris : MC-RPA, TRAH-SCF, COSX integrals
   Lee Huntington         : MR-EOM, pCC
   Robert Izsak           : Overlap fitted RIJCOSX, COSX-SCS-MP3, EOM
   Marcus Kettner         : VPT2
   Christian Kollmar      : KDIIS, OOCD, Brueckner-CCSD(T), CCSD density, CASPT2, CASPT2-K
   Simone Kossmann        : Meta GGA functionals, TD-DFT gradient, OOMP2, MP2 Hessian
   Martin Krupicka        : Initial AUTO-CI
   Lucas Lang             : DCDCAS
   Marvin Lechner         : AUTO-CI (C++ implementation), FIC-MRCC
   Dagmar Lenk            : GEPOL surface, SMD
   Dimitrios Liakos       : Extrapolation schemes; Compound Job, initial MDCI parallelization
   Dimitrios Manganas     : Further ROCIS development; embedding schemes
   Dimitrios Pantazis     : SARC Basis sets
   Anastasios Papadopoulos: AUTO-CI, single reference methods and gradients
   Taras Petrenko         : DFT Hessian,TD-DFT gradient, ASA, ECA, R-Raman, ABS, FL, XAS/XES, NRVS
   Peter Pinski           : DLPNO-MP2, DLPNO-MP2 Gradient
   Christoph Reimann      : Effective Core Potentials
   Marius Retegan         : Local ZFS, SOC
   Christoph Riplinger    : Optimizer, TS searches, QM/MM, DLPNO-CCSD(T), (RO)-DLPNO pert. Triples
   Tobias Risthaus        : Range-separated hybrids, TD-DFT gradient, RPA, STAB
   Michael Roemelt        : Original ROCIS implementation
   Masaaki Saitow         : Open-shell DLPNO-CCSD energy and density
   Barbara Sandhoefer     : DKH picture change effects
   Avijit Sen             : IP-ROCIS
   Kantharuban Sivalingam : CASSCF convergence, NEVPT2, FIC-MRCI
   Bernardo de Souza      : ESD, SOC TD-DFT
   Georgi Stoychev        : AutoAux, RI-MP2 NMR, DLPNO-MP2 response
   Willem Van den Heuvel  : Paramagnetic NMR
   Boris Wezisla          : Elementary symmetry handling
   Frank Wennmohs         : Technical directorship


 We gratefully acknowledge several colleagues who have allowed us to
 interface, adapt or use parts of their codes:
   Stefan Grimme, W. Hujo, H. Kruse, P. Pracht,  : VdW corrections, initial TS optimization,
                  C. Bannwarth, S. Ehlert          DFT functionals, gCP, sTDA/sTD-DF
   Ed Valeev, F. Pavosevic, A. Kumar             : LibInt (2-el integral package), F12 methods
   Garnet Chan, S. Sharma, J. Yang, R. Olivares  : DMRG
   Ulf Ekstrom                                   : XCFun DFT Library
   Mihaly Kallay                                 : mrcc  (arbitrary order and MRCC methods)
   Jiri Pittner, Ondrej Demel                    : Mk-CCSD
   Frank Weinhold                                : gennbo (NPA and NBO analysis)
   Christopher J. Cramer and Donald G. Truhlar   : smd solvation model
   Lars Goerigk                                  : TD-DFT with DH, B97 family of functionals
   V. Asgeirsson, H. Jonsson                     : NEB implementation
   FAccTs GmbH                                   : IRC, NEB, NEB-TS, DLPNO-Multilevel, CI-OPT
                                                   MM, QMMM, 2- and 3-layer-ONIOM, Crystal-QMMM,
                                                   LR-CPCM, SF, NACMEs, symmetry and pop. for TD-DFT,
                                                   nearIR, NL-DFT gradient (VV10), updates on ESD,
                                                   ML-optimized integration grids
   S Lehtola, MJT Oliveira, MAL Marques          : LibXC Library
   Liviu Ungur et al                             : ANISO software


 Your calculation uses the libint2 library for the computation of 2-el integrals
 For citations please refer to: http://libint.valeyev.net

 Your ORCA version has been built with support for libXC version: 5.1.0
 For citations please refer to: https://tddft.org/programs/libxc/

 This ORCA versions uses:
   CBLAS   interface :  Fast vector & matrix operations
   LAPACKE interface :  Fast linear algebra routines
   SCALAPACK package :  Parallel linear algebra routines
   Shared memory     :  Shared parallel matrices
   BLAS/LAPACK       :  OpenBLAS 0.3.15  USE64BITINT DYNAMIC_ARCH NO_AFFINITY Haswell SINGLE_THREADED
        Core in use  :  Haswell
   Copyright (c) 2011-2014, The OpenBLAS Project


SCAN-COORDS

Reading of a custom basis requested
Basis file         : Nb_ano-r3.basis
READING GTO-BASIS: NIOBIUM
Basis successfully read

================================================================================

----- Orbital basis set information -----
================================================================================
                                        WARNINGS
                       Please study these warnings very carefully!
================================================================================


INFO   : the flag for use of the SHARK integral package has been found!

================================================================================
                                       INPUT FILE
================================================================================
NAME = Nb_ano-r3_pbe.inp
|  1> !uks pbe nori verytightscf soscf notrah defgrid3
|  2> 
|  3> %pal
|  4>   nprocs 32
|  5> end
|  6> %coords
|  7>   charge 0
|  8>   mult 6
|  9>   units bohrs
| 10>   coords
| 11>     Nb 0.0 0.0 0.0
| 12>   end
| 13> end
| 14> %basis
| 15>   gtoname "Nb_ano-r3.basis"
| 16>   delECP Nb
| 17> end
| 18> %rel
| 19>   method zora
| 20>   modelpot 1, 0, 0, 0
| 21>   c 137.035999084
| 22> endd                         ****END OF INPUT****
================================================================================

                       ****************************
                       * Single Point Calculation *
                       ****************************

---------------------------------
CARTESIAN COORDINATES (ANGSTROEM)
---------------------------------
  Nb     0.000000    0.000000    0.000000

----------------------------
CARTESIAN COORDINATES (A.U.)
----------------------------
  NO LB      ZA    FRAG     MASS         X           Y           Z
   0 Nb   41.0000    0    92.910    0.000000    0.000000    0.000000

--------------------------------
INTERNAL COORDINATES (ANGSTROEM)
--------------------------------
 Nb     0   0   0     0.000000000000     0.00000000     0.00000000

---------------------------
INTERNAL COORDINATES (A.U.)
---------------------------
 Nb     0   0   0     0.000000000000     0.00000000     0.00000000

---------------------
BASIS SET INFORMATION
---------------------
There are 1 groups of distinct atoms

 Group   1 Type Nb  : 184s90p72d18f10g3h contracted to 8s6p6d3f2g1h pattern {2323232323232323/151515151515/121212121212/666/55/3}

Atom   0Nb   basis set group =>   1


           ************************************************************
           *        Program running with 32 parallel MPI-processes    *
           *              working on a common directory               *
           ************************************************************
------------------------------------------------------------------------------
                           ORCA GTO INTEGRAL CALCULATION
------------------------------------------------------------------------------
------------------------------------------------------------------------------
                   ___                                                        
                  /   \      - P O W E R E D   B Y -                         
                 /     \                                                     
                 |  |  |   _    _      __       _____    __    __             
                 |  |  |  | |  | |    /  \     |  _  \  |  |  /  |          
                  \  \/   | |  | |   /    \    | | | |  |  | /  /          
                 / \  \   | |__| |  /  /\  \   | |_| |  |  |/  /          
                |  |  |   |  __  | /  /__\  \  |    /   |      \           
                |  |  |   | |  | | |   __   |  |    \   |  |\   \          
                \     /   | |  | | |  |  |  |  | |\  \  |  | \   \       
                 \___/    |_|  |_| |__|  |__|  |_| \__\ |__|  \__/        
                                                                              
                      - O R C A' S   B I G   F R I E N D -                    
                                      &                                       
                       - I N T E G R A L  F E E D E R -                       
                                                                              
 v1 FN, 2020, v2 2021                                                         
------------------------------------------------------------------------------


Reading SHARK input file Nb_ano-r3_pbe.SHARKINP.tmp ... ok
----------------------
SHARK INTEGRAL PACKAGE
----------------------

Number of atoms                             ...      1
Number of basis functions                   ...    106
Number of shells                            ...     26
Maximum angular momentum                    ...      5
Integral batch strategy                     ... SHARK/LIBINT Hybrid
RI-J (if used) integral strategy            ... SPLIT-RIJ (Revised 2003 algorithm where possible)
Printlevel                                  ...      1
Contraction scheme used                     ... SEGMENTED contraction
Coulomb Range Separation                    ... NOT USED
Exchange Range Separation                   ... NOT USED
Finite Nucleus Model                        ... NOT USED
Auxiliary Coulomb fitting basis             ... NOT available
Auxiliary J/K fitting basis                 ... NOT available
Auxiliary Correlation fitting basis         ... NOT available
Auxiliary 'external' fitting basis          ... NOT available
Integral threshold                          ...     1.000000e-12
Primitive cut-off                           ...     1.000000e-14
Primitive pair pre-selection threshold      ...     1.000000e-14

Calculating pre-screening integrals         ... done ( 27.3 sec) Dimension = 26
Organizing shell pair data                  ... done (  0.5 sec)
Shell pair information
Total number of shell pairs                 ...       351
Shell pairs after pre-screening             ...       351
Total number of primitive shell pairs       ...     74371
Primitive shell pairs kept                  ...     74371
          la=0 lb=0:     36 shell pairs
          la=1 lb=0:     48 shell pairs
          la=1 lb=1:     21 shell pairs
          la=2 lb=0:     48 shell pairs
          la=2 lb=1:     36 shell pairs
          la=2 lb=2:     21 shell pairs
          la=3 lb=0:     24 shell pairs
          la=3 lb=1:     18 shell pairs
          la=3 lb=2:     18 shell pairs
          la=3 lb=3:      6 shell pairs
          la=4 lb=0:     16 shell pairs
          la=4 lb=1:     12 shell pairs
          la=4 lb=2:     12 shell pairs
          la=4 lb=3:      6 shell pairs
          la=4 lb=4:      3 shell pairs
          la=5 lb=0:      8 shell pairs
          la=5 lb=1:      6 shell pairs
          la=5 lb=2:      6 shell pairs
          la=5 lb=3:      3 shell pairs
          la=5 lb=4:      2 shell pairs
          la=5 lb=5:      1 shell pairs

Calculating one electron integrals          ... done (  0.7 sec)
Calculating Nuclear repulsion               ... done (  0.0 sec) ENN=      0.000000000000 Eh

SHARK setup successfully completed in  28.9 seconds

Maximum memory used throughout the entire GTOINT-calculation: 386.5 MB


           ************************************************************
           *        Program running with 32 parallel MPI-processes    *
           *              working on a common directory               *
           ************************************************************
------------------------------------------------------------------------------
                          ORCA RELATIVISTIC HAMILTONIAN
------------------------------------------------------------------------------

Relativistic Method            ... ZORA(MP)
Treatment of potential         ... Van Wuellen
Nucleus model                  ... Point Nucleus
Speed of light used            ... 137.03599908400000


            *************************************************
            *         ZERO ORDER REGULAR APPROXIMATION      *
            *                     ZORA(MP)                  *
            *            Programmed by FN according to      *
            *                   C. van Wuellen              *
            *       J. Chem. Phys. (1998) vol 109, 392-399  *
            *************************************************

Terms included in model potential: +V(e,N)
Basis function cutoff value   ... 1.000000e-12
Loading the fitted atomic densities  (DKH4)  ... done
Calculating the cutoffs                      ... done
Number of fit functions                      ... 28
Setting up the integration grid ... done

Maximum memory used throughout the entire REL-calculation: 23.6 MB


           ************************************************************
           *        Program running with 32 parallel MPI-processes    *
           *              working on a common directory               *
           ************************************************************
-------------------------------------------------------------------------------
                                 ORCA SCF
-------------------------------------------------------------------------------

------------
SCF SETTINGS
------------
Hamiltonian:
 Density Functional     Method          .... DFT(GTOs)
 Exchange Functional    Exchange        .... PBE
   PBE kappa parameter   XKappa         ....  0.804000
   PBE mue parameter    XMuePBE         ....  0.219520
 Correlation Functional Correlation     .... PBE
   PBE beta parameter  CBetaPBE         ....  0.066725
 LDA part of GGA corr.  LDAOpt          .... PW91-LDA
 Gradients option       PostSCFGGA      .... off
   Density functional embedding theory  .... OFF
   NL short-range parameter             ....  6.400000

Relativistic Settings:
 Scalar relativistic method             .... ZORA
 Speed of light used       Velit        ....       137.035999
Orbital energies will be scaled


General Settings:
 Integral files         IntName         .... Nb_ano-r3_pbe
 Hartree-Fock type      HFTyp           .... UHF
 Total Charge           Charge          ....    0
 Multiplicity           Mult            ....    6
 Number of Electrons    NEL             ....   41
 Basis Dimension        Dim             ....  106
 Nuclear Repulsion      ENuc            ....      0.0000000000 Eh

Convergence Acceleration:
 DIIS                   CNVDIIS         .... on
   Start iteration      DIISMaxIt       ....    12
   Startup error        DIISStart       ....  0.200000
   # of expansion vecs  DIISMaxEq       ....     5
   Bias factor          DIISBfac        ....   1.050
   Max. coefficient     DIISMaxC        ....  10.000
 Trust-Rad. Augm. Hess. CNVTRAH         .... off
 SOSCF                  CNVSOSCF        .... on
   Start iteration      SOSCFMaxIt      ....   150
   Startup grad/error   SOSCFStart      ....  0.003300
 Level Shifting         CNVShift        .... on
   Level shift para.    LevelShift      ....    0.2500
   Turn off err/grad.   ShiftErr        ....    0.0010
 Zerner damping         CNVZerner       .... off
 Static damping         CNVDamp         .... on
   Fraction old density DampFac         ....    0.7000
   Max. Damping (<1)    DampMax         ....    0.9800
   Min. Damping (>=0)   DampMin         ....    0.0000
   Turn off err/grad.   DampErr         ....    0.1000
 Fernandez-Rico         CNVRico         .... off

SCF Procedure:
 Maximum # iterations   MaxIter         ....   125
 SCF integral mode      SCFMode         .... Direct
   Integral package                     .... SHARK and LIBINT hybrid scheme
 Reset frequency        DirectResetFreq ....    20
 Integral Threshold     Thresh          ....  1.000e-12 Eh
 Primitive CutOff       TCut            ....  1.000e-14 Eh

Convergence Tolerance:
 Convergence Check Mode ConvCheckMode   .... Total+1el-Energy
 Convergence forced     ConvForced      .... 0
 Energy Change          TolE            ....  1.000e-09 Eh
 1-El. energy change                    ....  1.000e-06 Eh
 Orbital Gradient       TolG            ....  2.000e-06
 Orbital Rotation angle TolX            ....  2.000e-06
 DIIS Error             TolErr          ....  1.000e-08


Diagonalization of the overlap matrix:
Smallest eigenvalue                        ... 1.000e+00
Time for diagonalization                   ...    0.013 sec
Threshold for overlap eigenvalues          ... 1.000e-08
Number of eigenvalues below threshold      ... 0
Time for construction of square roots      ...    0.064 sec
Total time needed                          ...    0.079 sec

Time for model grid setup =    0.188 sec

------------------------------
INITIAL GUESS: MODEL POTENTIAL
------------------------------
Loading ZORA relativistic densities                ... done
Calculating cut-offs                               ... done
Initializing the effective Hamiltonian             ... done
Setting up the integral package (SHARK)            ... done
Starting the Coulomb interaction                   ... done (   0.6 sec)
Reading the grid                                   ... done
Mapping shells                                     ... done
Starting the XC term evaluation                    ... done (   0.1 sec)
  promolecular density results
     # of electrons  =     41.000391489
     EX              =   -119.354590319
     EC              =     -2.038692211
     EX+EC           =   -121.393282530
Transforming the Hamiltonian                       ... done (   0.0 sec)
Diagonalizing the Hamiltonian                      ... done (   0.0 sec)
Back transforming the eigenvectors                 ... done (   0.0 sec)
Now organizing SCF variables                       ... done
                      ------------------
                      INITIAL GUESS DONE (   1.0 sec)
                      ------------------
-------------------
DFT GRID GENERATION
-------------------

General Integration Accuracy     IntAcc      ... 4.959
Radial Grid Type                 RadialGrid  ... OptM3 with GC (2021)
Angular Grid (max. ang.)         AngularGrid ... 6 (Lebedev-590)
Angular grid pruning method      GridPruning ... 4 (adaptive)
Weight generation scheme         WeightScheme... Becke
Basis function cutoff            BFCut       ... 1.0000e-12
Integration weight cutoff        WCut        ... 1.0000e-14
Angular grids for H and He will be reduced by one unit
Partially contracted basis set               ... off
Rotationally invariant grid construction     ... off

Total number of grid points                  ...    65888
Total number of batches                      ...     1030
Average number of points per batch           ...       63
Average number of grid points per atom       ...    65888
Time for grid setup =    4.178 sec

--------------
SCF ITERATIONS
--------------
ITER       Energy         Delta-E        Max-DP      RMS-DP      [F,P]     Damp
               ***  Starting incremental Fock matrix formation  ***
  0  -3863.8414236336   0.000000000000 0.01992313  0.00035734  0.1427529 0.7000
  1  -3863.8506830637  -0.009259430100 0.01867986  0.00031741  0.0951343 0.7000
                               ***Turning on DIIS***
  2  -3863.8551104585  -0.004427394802 0.04434784  0.00070734  0.0639198 0.0000
  3  -3863.8615037818  -0.006393323352 0.01912112  0.00029912  0.0213620 0.0000
  4  -3863.8629997361  -0.001495954297 0.00268103  0.00006097  0.0144303 0.0000
  5  -3863.8631952964  -0.000195560238 0.00228863  0.00004229  0.0052249 0.0000
                      *** Initiating the SOSCF procedure ***
                           *** Shutting down DIIS ***
                      *** Re-Reading the Fockian *** 
                      *** Removing any level shift *** 
ITER      Energy       Delta-E        Grad      Rot      Max-DP    RMS-DP
  6  -3863.86326114  -0.0000658471  0.000976  0.000976  0.353659  0.003448
               *** Restarting incremental Fock matrix formation ***
  7  -3863.86179961   0.0014615378  0.023426  0.068518  0.041159  0.000546
  8  -3863.86315348  -0.0013538771  0.006765  0.004937  0.004341  0.000082
  9  -3863.86334154  -0.0001880545  0.001086  0.018186  0.011332  0.000135
 10  -3863.86337333  -0.0000317941  0.001108  0.033547  0.021400  0.000233
 11  -3863.86343925  -0.0000659178  0.000872  0.259552  0.175346  0.001718
 12  -3863.86349400  -0.0000547501  0.003993  0.115584  0.079430  0.000776
 13  -3863.86358495  -0.0000909509  0.000851  0.014954  0.010348  0.000102
 14  -3863.86358931  -0.0000043630  0.000047  0.003252  0.002261  0.000022
 15  -3863.86358940  -0.0000000872  0.000013  0.000259  0.000171  0.000002
 16  -3863.86358940  -0.0000000044  0.000006  0.000116  0.000079  0.000001
 17  -3863.86358941  -0.0000000005  0.000003  0.000022  0.000017  0.000000
                  ***Gradient check signals convergence***
              ***Rediagonalizing the Fockian in SOSCF/NRSCF***

               *****************************************************
               *                     SUCCESS                       *
               *           SCF CONVERGED AFTER  18 CYCLES          *
               *****************************************************


----------------
TOTAL SCF ENERGY
----------------

Total Energy       :        -3863.86358941 Eh         -105141.07354 eV

Components:
Nuclear Repulsion  :            0.00000000 Eh               0.00000 eV
Electronic Energy  :        -3863.86358941 Eh         -105141.07354 eV
One Electron Energy:        -5318.22508519 Eh         -144716.26180 eV
Two Electron Energy:         1454.36149579 Eh           39575.18826 eV

Virial components:
Potential Energy   :        -7896.60508666 Eh         -214877.54857 eV
Kinetic Energy     :         4032.74149725 Eh          109736.47503 eV
Virial Ratio       :            1.95812330


DFT components:
N(Alpha)           :       22.999999995328 electrons
N(Beta)            :       17.999999995353 electrons
N(Total)           :       40.999999990682 electrons
E(X)               :     -117.682975164076 Eh       
E(C)               :       -2.013053316139 Eh       
E(XC)              :     -119.696028480215 Eh       
DFET-embed. en.    :        0.000000000000 Eh       

---------------
SCF CONVERGENCE
---------------

  Last Energy change         ...   -2.9104e-11  Tolerance :   1.0000e-09
  Last MAX-Density change    ...    5.3497e-06  Tolerance :   1.0000e-08
  Last RMS-Density change    ...    6.4222e-08  Tolerance :   1.0000e-09
  Last Orbital Gradient      ...    3.2201e-07  Tolerance :   2.0000e-06
  Last Orbital Rotation      ...    7.6423e-06  Tolerance :   2.0000e-06

             **** THE GBW FILE WAS UPDATED (Nb_ano-r3_pbe.gbw) ****
             **** DENSITY Nb_ano-r3_pbe.scfp WAS UPDATED ****
             **** ENERGY FILE WAS UPDATED (Nb_ano-r3_pbe.en.tmp) ****
----------------------
UHF SPIN CONTAMINATION
----------------------

Warning: in a DFT calculation there is little theoretical justification to 
         calculate <S**2> as in Hartree-Fock theory. We will do it anyways
         but you should keep in mind that the values have only limited relevance

Expectation value of <S**2>     :     8.750948
Ideal value S*(S+1) for S=2.5   :     8.750000
Deviation                       :     0.000948

             **** THE GBW FILE WAS UPDATED (Nb_ano-r3_pbe.gbw) ****
             **** DENSITY Nb_ano-r3_pbe.scfp WAS UPDATED ****
----------------
ORBITAL ENERGIES
----------------
                 SPIN UP ORBITALS
  NO   OCC          E(Eh)            E(eV) 
   0   1.0000    -707.454614    -19250.8187 
   1   1.0000     -97.335655     -2648.6378 
   2   1.0000     -87.119957     -2370.6545 
   3   1.0000     -87.116256     -2370.5538 
   4   1.0000     -87.116256     -2370.5538 
   5   1.0000     -16.166597      -439.9155 
   6   1.0000     -12.807328      -348.5051 
   7   1.0000     -12.797773      -348.2451 
   8   1.0000     -12.797772      -348.2451 
   9   1.0000      -7.231904      -196.7901 
  10   1.0000      -7.230178      -196.7432 
  11   1.0000      -7.230178      -196.7432 
  12   1.0000      -7.223487      -196.5611 
  13   1.0000      -7.223487      -196.5611 
  14   1.0000      -2.159435       -58.7612 
  15   1.0000      -1.296947       -35.2917 
  16   1.0000      -1.285053       -34.9681 
  17   1.0000      -1.285053       -34.9681 
  18   1.0000      -0.163617        -4.4522 
  19   1.0000      -0.144052        -3.9198 
  20   1.0000      -0.144052        -3.9198 
  21   1.0000      -0.129032        -3.5111 
  22   1.0000      -0.129032        -3.5111 
  23   0.0000      -0.126051        -3.4300 
  24   0.0000      -0.004412        -0.1201 
  25   0.0000      -0.000478        -0.0130 
  26   0.0000      -0.000478        -0.0130 
  27   0.0000       0.035773         0.9734 
  28   0.0000       0.047565         1.2943 
  29   0.0000       0.047565         1.2943 
  30   0.0000       0.049928         1.3586 
  31   0.0000       0.050098         1.3632 
  32   0.0000       0.050098         1.3632 
  33   0.0000       0.303272         8.2525 
  34   0.0000       0.303272         8.2525 
  35   0.0000       0.311058         8.4643 
  36   0.0000       0.311058         8.4643 
  37   0.0000       0.311347         8.4722 
  38   0.0000       0.407128        11.0785 
  39   0.0000       0.407128        11.0785 
  40   0.0000       0.411822        11.2063 
  41   0.0000       0.411823        11.2063 
  42   0.0000       0.418642        11.3918 
  43   0.0000       0.418642        11.3918 
  44   0.0000       0.420868        11.4524 
  45   0.0000       0.519340        14.1320 
  46   0.0000       0.875863        23.8335 
  47   0.0000       0.881275        23.9807 
  48   0.0000       0.881275        23.9807 
  49   0.0000       1.336306        36.3627 
  50   0.0000       1.336306        36.3627 
  51   0.0000       1.336380        36.3648 
  52   0.0000       1.336381        36.3648 
  53   0.0000       1.343152        36.5490 
  54   0.0000       1.343152        36.5490 
  55   0.0000       1.350776        36.7565 
  56   0.0000       1.350776        36.7565 
  57   0.0000       1.353761        36.8377 
  58   0.0000       1.356045        36.8999 
  59   0.0000       1.356045        36.8999 
  60   0.0000       1.360140        37.0113 
  61   0.0000       1.360140        37.0113 
  62   0.0000       1.370413        37.2908 
  63   0.0000       1.371963        37.3330 
  64   0.0000       1.371963        37.3330 
  65   0.0000       1.445438        39.3324 
  66   0.0000       1.445438        39.3324 
  67   0.0000       1.458401        39.6851 
  68   0.0000       1.458401        39.6851 
  69   0.0000       1.460285        39.7364 
  70   0.0000       2.945227        80.1437 
  71   0.0000       3.715301       101.0985 
  72   0.0000       3.715301       101.0985 
  73   0.0000       3.716375       101.1277 
  74   0.0000       3.716375       101.1277 
  75   0.0000       3.722411       101.2920 
  76   0.0000       3.729260       101.4783 
  77   0.0000       3.729260       101.4783 
  78   0.0000       4.454340       121.2087 
  79   0.0000       4.454340       121.2087 
  80   0.0000       4.463166       121.4489 
  81   0.0000       4.467056       121.5548 
  82   0.0000       4.467056       121.5548 
  83   0.0000       4.718709       128.4026 
  84   0.0000       4.718709       128.4026 
  85   0.0000       4.721469       128.4777 
  86   0.0000       4.721469       128.4777 
  87   0.0000       4.721558       128.4801 
  88   0.0000       4.721559       128.4801 
  89   0.0000       4.727270       128.6356 
  90   0.0000       4.735871       128.8696 
  91   0.0000       4.735871       128.8696 
  92   0.0000       4.776885       129.9856 
  93   0.0000       4.787282       130.2686 
  94   0.0000       4.787282       130.2686 
  95   0.0000       5.310871       144.5162 
  96   0.0000       5.310872       144.5162 
  97   0.0000       5.312058       144.5484 
  98   0.0000       5.312058       144.5485 
  99   0.0000       5.315047       144.6298 
 100   0.0000       5.315047       144.6298 
 101   0.0000       5.319071       144.7393 
 102   0.0000       5.319074       144.7394 
 103   0.0000       5.325047       144.9019 
 104   0.0000       5.330617       145.0535 
 105   0.0000       5.330617       145.0535 

                 SPIN DOWN ORBITALS
  NO   OCC          E(Eh)            E(eV) 
   0   1.0000    -707.454573    -19250.8176 
   1   1.0000     -97.324753     -2648.3412 
   2   1.0000     -87.113204     -2370.4708 
   3   1.0000     -87.107549     -2370.3169 
   4   1.0000     -87.107549     -2370.3169 
   5   1.0000     -16.160116      -439.7391 
   6   1.0000     -12.801513      -348.3469 
   7   1.0000     -12.789937      -348.0319 
   8   1.0000     -12.789936      -348.0319 
   9   1.0000      -7.225963      -196.6284 
  10   1.0000      -7.217938      -196.4101 
  11   1.0000      -7.217938      -196.4101 
  12   1.0000      -7.211944      -196.2470 
  13   1.0000      -7.211944      -196.2470 
  14   1.0000      -2.089405       -56.8556 
  15   1.0000      -1.230314       -33.4785 
  16   1.0000      -1.197383       -32.5824 
  17   1.0000      -1.197383       -32.5824 
  18   0.0000      -0.068554        -1.8655 
  19   0.0000      -0.052990        -1.4419 
  20   0.0000      -0.033822        -0.9204 
  21   0.0000      -0.033822        -0.9204 
  22   0.0000      -0.023375        -0.6361 
  23   0.0000      -0.023375        -0.6361 
  24   0.0000       0.090159         2.4534 
  25   0.0000       0.095914         2.6100 
  26   0.0000       0.103808         2.8248 
  27   0.0000       0.103808         2.8248 
  28   0.0000       0.106758         2.9050 
  29   0.0000       0.109394         2.9768 
  30   0.0000       0.109394         2.9768 
  31   0.0000       0.111180         3.0254 
  32   0.0000       0.111181         3.0254 
  33   0.0000       0.385437        10.4883 
  34   0.0000       0.397031        10.8038 
  35   0.0000       0.397031        10.8038 
  36   0.0000       0.402374        10.9491 
  37   0.0000       0.402374        10.9492 
  38   0.0000       0.507109        13.7991 
  39   0.0000       0.510992        13.9048 
  40   0.0000       0.510992        13.9048 
  41   0.0000       0.519903        14.1473 
  42   0.0000       0.519904        14.1473 
  43   0.0000       0.522794        14.2260 
  44   0.0000       0.522794        14.2260 
  45   0.0000       0.603944        16.4342 
  46   0.0000       0.966780        26.3074 
  47   0.0000       0.988141        26.8887 
  48   0.0000       0.988141        26.8887 
  49   0.0000       1.437338        39.1120 
  50   0.0000       1.440924        39.2095 
  51   0.0000       1.440924        39.2095 
  52   0.0000       1.449025        39.4300 
  53   0.0000       1.449025        39.4300 
  54   0.0000       1.452675        39.5293 
  55   0.0000       1.457955        39.6730 
  56   0.0000       1.457955        39.6730 
  57   0.0000       1.459285        39.7092 
  58   0.0000       1.459285        39.7092 
  59   0.0000       1.462104        39.7859 
  60   0.0000       1.462104        39.7859 
  61   0.0000       1.482976        40.3538 
  62   0.0000       1.482976        40.3538 
  63   0.0000       1.486538        40.4508 
  64   0.0000       1.486538        40.4508 
  65   0.0000       1.522586        41.4317 
  66   0.0000       1.540907        41.9302 
  67   0.0000       1.540908        41.9302 
  68   0.0000       1.549210        42.1561 
  69   0.0000       1.549210        42.1561 
  70   0.0000       3.006814        81.8196 
  71   0.0000       3.774812       102.7179 
  72   0.0000       3.783423       102.9522 
  73   0.0000       3.783423       102.9522 
  74   0.0000       3.802167       103.4622 
  75   0.0000       3.802167       103.4622 
  76   0.0000       3.805954       103.5653 
  77   0.0000       3.805954       103.5653 
  78   0.0000       4.505727       122.6071 
  79   0.0000       4.525871       123.1552 
  80   0.0000       4.525871       123.1552 
  81   0.0000       4.535461       123.4162 
  82   0.0000       4.535461       123.4162 
  83   0.0000       4.791602       130.3861 
  84   0.0000       4.797714       130.5524 
  85   0.0000       4.797714       130.5524 
  86   0.0000       4.813235       130.9748 
  87   0.0000       4.813235       130.9748 
  88   0.0000       4.828283       131.3843 
  89   0.0000       4.828283       131.3843 
  90   0.0000       4.828774       131.3976 
  91   0.0000       4.828774       131.3976 
  92   0.0000       4.829649       131.4214 
  93   0.0000       4.853515       132.0709 
  94   0.0000       4.853515       132.0709 
  95   0.0000       5.404014       147.0507 
  96   0.0000       5.407665       147.1500 
  97   0.0000       5.407665       147.1500 
  98   0.0000       5.418044       147.4325 
  99   0.0000       5.418044       147.4325 
 100   0.0000       5.431624       147.8020 
 101   0.0000       5.431624       147.8020 
 102   0.0000       5.439746       148.0230 
 103   0.0000       5.439746       148.0230 
 104   0.0000       5.441850       148.0803 
 105   0.0000       5.441850       148.0803 

                    ********************************
                    * MULLIKEN POPULATION ANALYSIS *
                    ********************************

--------------------------------------------
MULLIKEN ATOMIC CHARGES AND SPIN POPULATIONS
--------------------------------------------
   0 Nb:   -0.000000    5.000000
Sum of atomic charges         :   -0.0000000
Sum of atomic spin populations:    5.0000000

-----------------------------------------------------
MULLIKEN REDUCED ORBITAL CHARGES AND SPIN POPULATIONS
-----------------------------------------------------
CHARGE
  0 Nbs       :     8.998956  s :     8.998956
      pz      :     5.999824  p :    17.999740
      px      :     5.999959
      py      :     5.999957
      dz2     :     2.180865  d :    14.000870
      dxz     :     2.932837
      dyz     :     2.890228
      dx2y2   :     2.999784
      dxy     :     2.997156
      f0      :     0.000129  f :     0.000245
      f+1     :     0.000047
      f-1     :     0.000058
      f+2     :     0.000005
      f-2     :     0.000007
      f+3     :     0.000000
      f-3     :     0.000000
      g0      :     0.000041  g :     0.000174
      g+1     :     0.000026
      g-1     :     0.000033
      g+2     :     0.000027
      g-2     :     0.000030
      g+3     :     0.000008
      g-3     :     0.000008
      g+4     :     0.000000
      g-4     :     0.000000
      h0      :     0.000005  h :     0.000015
      h+1     :     0.000003
      h-1     :     0.000004
      h+2     :     0.000001
      h-2     :     0.000001
      h+3     :     0.000000
      h-3     :     0.000000
      h+4     :     0.000000
      h-4     :     0.000000
      h+5     :     0.000000
      h-5     :     0.000000

SPIN
  0 Nbs       :     0.999195  s :     0.999195
      pz      :     0.000154  p :     0.000147
      px      :    -0.000005
      py      :    -0.000002
      dz2     :     0.180680  d :     4.000645
      dxz     :     0.932822
      dyz     :     0.890203
      dx2y2   :     0.999784
      dxy     :     0.997155
      f0      :    -0.000106  f :    -0.000144
      f+1     :    -0.000012
      f-1     :    -0.000026
      f+2     :     0.000001
      f-2     :    -0.000001
      f+3     :     0.000000
      f-3     :     0.000000
      g0      :     0.000034  g :     0.000159
      g+1     :     0.000023
      g-1     :     0.000029
      g+2     :     0.000027
      g-2     :     0.000029
      g+3     :     0.000008
      g-3     :     0.000008
      g+4     :     0.000000
      g-4     :     0.000000
      h0      :    -0.000001  h :    -0.000003
      h+1     :    -0.000001
      h-1     :    -0.000001
      h+2     :    -0.000000
      h-2     :    -0.000000
      h+3     :    -0.000000
      h-3     :    -0.000000
      h+4     :    -0.000000
      h-4     :    -0.000000
      h+5     :    -0.000000
      h-5     :    -0.000000


                     *******************************
                     * LOEWDIN POPULATION ANALYSIS *
                     *******************************

-------------------------------------------
LOEWDIN ATOMIC CHARGES AND SPIN POPULATIONS
-------------------------------------------
   0 Nb:    0.000000    5.000000

----------------------------------------------------
LOEWDIN REDUCED ORBITAL CHARGES AND SPIN POPULATIONS
----------------------------------------------------
CHARGE
  0 Nbs       :     8.998956  s :     8.998956
      pz      :     5.999824  p :    17.999740
      px      :     5.999959
      py      :     5.999957
      dz2     :     2.180865  d :    14.000870
      dxz     :     2.932837
      dyz     :     2.890228
      dx2y2   :     2.999784
      dxy     :     2.997156
      f0      :     0.000129  f :     0.000245
      f+1     :     0.000047
      f-1     :     0.000058
      f+2     :     0.000005
      f-2     :     0.000007
      f+3     :     0.000000
      f-3     :     0.000000
      g0      :     0.000041  g :     0.000174
      g+1     :     0.000026
      g-1     :     0.000033
      g+2     :     0.000027
      g-2     :     0.000030
      g+3     :     0.000008
      g-3     :     0.000008
      g+4     :     0.000000
      g-4     :     0.000000
      h0      :     0.000005  h :     0.000015
      h+1     :     0.000003
      h-1     :     0.000004
      h+2     :     0.000001
      h-2     :     0.000001
      h+3     :     0.000000
      h-3     :     0.000000
      h+4     :     0.000000
      h-4     :     0.000000
      h+5     :     0.000000
      h-5     :     0.000000

SPIN
  0 Nbs       :     0.999195  s :     0.999195
      pz      :     0.000154  p :     0.000147
      px      :    -0.000005
      py      :    -0.000002
      dz2     :     0.180680  d :     4.000645
      dxz     :     0.932822
      dyz     :     0.890203
      dx2y2   :     0.999784
      dxy     :     0.997155
      f0      :    -0.000106  f :    -0.000144
      f+1     :    -0.000012
      f-1     :    -0.000026
      f+2     :     0.000001
      f-2     :    -0.000001
      f+3     :     0.000000
      f-3     :     0.000000
      g0      :     0.000034  g :     0.000159
      g+1     :     0.000023
      g-1     :     0.000029
      g+2     :     0.000027
      g-2     :     0.000029
      g+3     :     0.000008
      g-3     :     0.000008
      g+4     :     0.000000
      g-4     :     0.000000
      h0      :    -0.000001  h :    -0.000003
      h+1     :    -0.000001
      h-1     :    -0.000001
      h+2     :    -0.000000
      h-2     :    -0.000000
      h+3     :    -0.000000
      h-3     :    -0.000000
      h+4     :    -0.000000
      h-4     :    -0.000000
      h+5     :    -0.000000
      h-5     :    -0.000000


                      *****************************
                      * MAYER POPULATION ANALYSIS *
                      *****************************

  NA   - Mulliken gross atomic population
  ZA   - Total nuclear charge
  QA   - Mulliken gross atomic charge
  VA   - Mayer's total valence
  BVA  - Mayer's bonded valence
  FA   - Mayer's free valence

  ATOM       NA         ZA         QA         VA         BVA        FA
  0 Nb    41.0000    41.0000     0.0000     5.0019     0.0000     5.0019

  Mayer bond orders larger than 0.100000


-------
TIMINGS
-------

Total SCF time: 0 days 1 hours 14 min 34 sec 

Total time                  ....    4474.682 sec
Sum of individual times     ....    4472.915 sec  (100.0%)

Fock matrix formation       ....    4465.959 sec  ( 99.8%)
  XC integration            ....       9.051 sec  (  0.2% of F)
    Basis function eval.    ....       0.503 sec  (  5.6% of XC)
    Density eval.           ....       0.656 sec  (  7.2% of XC)
    XC-Functional eval.     ....       0.598 sec  (  6.6% of XC)
    XC-Potential eval.      ....       0.253 sec  (  2.8% of XC)
Diagonalization             ....       0.935 sec  (  0.0%)
Density matrix formation    ....       0.009 sec  (  0.0%)
Population analysis         ....       0.193 sec  (  0.0%)
Initial guess               ....       0.822 sec  (  0.0%)
Orbital Transformation      ....       0.000 sec  (  0.0%)
Orbital Orthonormalization  ....       0.000 sec  (  0.0%)
DIIS solution               ....       0.196 sec  (  0.0%)
SOSCF solution              ....       0.436 sec  (  0.0%)
Grid generation             ....       4.365 sec  (  0.1%)

Maximum memory used throughout the entire SCF-calculation: 268.0 MB

-------------------------   --------------------
FINAL SINGLE POINT ENERGY     -3863.863589405232
-------------------------   --------------------


                            ***************************************
                            *     ORCA property calculations      *
                            ***************************************

                                    ---------------------
                                    Active property flags
                                    ---------------------
   (+) Dipole Moment


------------------------------------------------------------------------------
                       ORCA ELECTRIC PROPERTIES CALCULATION
------------------------------------------------------------------------------

Dipole Moment Calculation                       ... on
Quadrupole Moment Calculation                   ... off
Polarizability Calculation                      ... off
GBWName                                         ... Nb_ano-r3_pbe.gbw
Electron density                                ... Nb_ano-r3_pbe.scfp
The origin for moment calculation is the CENTER OF MASS  = ( 0.000000,  0.000000  0.000000)

-------------
DIPOLE MOMENT
-------------
                                X             Y             Z
Electronic contribution:     -0.00000      -0.00000       0.00000
Nuclear contribution   :      0.00000       0.00000       0.00000
                        -----------------------------------------
Total Dipole Moment    :     -0.00000      -0.00000       0.00000
                        -----------------------------------------
Magnitude (a.u.)       :      0.00000
Magnitude (Debye)      :      0.00000



--------------------
Rotational spectrum 
--------------------
 
Rotational constants in cm-1:     0.000000     0.000000     0.000000 
Rotational constants in MHz :     0.000000     0.000000     0.000000 

 Dipole components along the rotational axes: 
x,y,z [a.u.] :    -0.000000    -0.000000     0.000000 
x,y,z [Debye]:    -0.000000    -0.000000     0.000000 

 

Timings for individual modules:

Sum of individual times         ...     4518.185 sec (=  75.303 min)
GTO integral calculation        ...       33.115 sec (=   0.552 min)   0.7 %
Relativistic integrals          ...        7.519 sec (=   0.125 min)   0.2 %
SCF iterations                  ...     4477.550 sec (=  74.626 min)  99.1 %
                             ****ORCA TERMINATED NORMALLY****
TOTAL RUN TIME: 0 days 1 hours 15 minutes 31 seconds 343 msec
