
                                 *****************
                                 * O   R   C   A *
                                 *****************

                                            #,                                       
                                            ###                                      
                                            ####                                     
                                            #####                                    
                                            ######                                   
                                           ########,                                 
                                     ,,################,,,,,                         
                               ,,#################################,,                 
                          ,,##########################################,,             
                       ,#########################################, ''#####,          
                    ,#############################################,,   '####,        
                  ,##################################################,,,,####,       
                ,###########''''           ''''###############################       
              ,#####''   ,,,,##########,,,,          '''####'''          '####       
            ,##' ,,,,###########################,,,                        '##       
           ' ,,###''''                  '''############,,,                           
         ,,##''                                '''############,,,,        ,,,,,,###''
      ,#''                                            '''#######################'''  
     '                                                          ''''####''''         
             ,#######,   #######,   ,#######,      ##                                
            ,#'     '#,  ##    ##  ,#'     '#,    #''#        ######   ,####,        
            ##       ##  ##   ,#'  ##            #'  '#       #        #'  '#        
            ##       ##  #######   ##           ,######,      #####,   #    #        
            '#,     ,#'  ##    ##  '#,     ,#' ,#      #,         ##   #,  ,#        
             '#######'   ##     ##  '#######'  #'      '#     #####' # '####'        



                  #######################################################
                  #                        -***-                        #
                  #          Department of theory and spectroscopy      #
                  #    Directorship and core code : Frank Neese         #
                  #        Max Planck Institute fuer Kohlenforschung    #
                  #                Kaiser Wilhelm Platz 1               #
                  #                 D-45470 Muelheim/Ruhr               #
                  #                      Germany                        #
                  #                                                     #
                  #                  All rights reserved                #
                  #                        -***-                        #
                  #######################################################


                         Program Version 5.0.1 -  RELEASE  -


 With contributions from (in alphabetic order):
   Daniel Aravena         : Magnetic Suceptibility
   Michael Atanasov       : Ab Initio Ligand Field Theory (pilot matlab implementation)
   Alexander A. Auer      : GIAO ZORA, VPT2 properties, NMR spectrum
   Ute Becker             : Parallelization
   Giovanni Bistoni       : ED, misc. LED, open-shell LED, HFLD
   Martin Brehm           : Molecular dynamics
   Dmytro Bykov           : SCF Hessian
   Vijay G. Chilkuri      : MRCI spin determinant printing, contributions to CSF-ICE
   Dipayan Datta          : RHF DLPNO-CCSD density
   Achintya Kumar Dutta   : EOM-CC, STEOM-CC
   Dmitry Ganyushin       : Spin-Orbit,Spin-Spin,Magnetic field MRCI
   Miquel Garcia          : C-PCM and meta-GGA Hessian, CC/C-PCM, Gaussian charge scheme
   Yang Guo               : DLPNO-NEVPT2, F12-NEVPT2, CIM, IAO-localization
   Andreas Hansen         : Spin unrestricted coupled pair/coupled cluster methods
   Benjamin Helmich-Paris : MC-RPA, TRAH-SCF, COSX integrals
   Lee Huntington         : MR-EOM, pCC
   Robert Izsak           : Overlap fitted RIJCOSX, COSX-SCS-MP3, EOM
   Marcus Kettner         : VPT2
   Christian Kollmar      : KDIIS, OOCD, Brueckner-CCSD(T), CCSD density, CASPT2, CASPT2-K
   Simone Kossmann        : Meta GGA functionals, TD-DFT gradient, OOMP2, MP2 Hessian
   Martin Krupicka        : Initial AUTO-CI
   Lucas Lang             : DCDCAS
   Marvin Lechner         : AUTO-CI (C++ implementation), FIC-MRCC
   Dagmar Lenk            : GEPOL surface, SMD
   Dimitrios Liakos       : Extrapolation schemes; Compound Job, initial MDCI parallelization
   Dimitrios Manganas     : Further ROCIS development; embedding schemes
   Dimitrios Pantazis     : SARC Basis sets
   Anastasios Papadopoulos: AUTO-CI, single reference methods and gradients
   Taras Petrenko         : DFT Hessian,TD-DFT gradient, ASA, ECA, R-Raman, ABS, FL, XAS/XES, NRVS
   Peter Pinski           : DLPNO-MP2, DLPNO-MP2 Gradient
   Christoph Reimann      : Effective Core Potentials
   Marius Retegan         : Local ZFS, SOC
   Christoph Riplinger    : Optimizer, TS searches, QM/MM, DLPNO-CCSD(T), (RO)-DLPNO pert. Triples
   Tobias Risthaus        : Range-separated hybrids, TD-DFT gradient, RPA, STAB
   Michael Roemelt        : Original ROCIS implementation
   Masaaki Saitow         : Open-shell DLPNO-CCSD energy and density
   Barbara Sandhoefer     : DKH picture change effects
   Avijit Sen             : IP-ROCIS
   Kantharuban Sivalingam : CASSCF convergence, NEVPT2, FIC-MRCI
   Bernardo de Souza      : ESD, SOC TD-DFT
   Georgi Stoychev        : AutoAux, RI-MP2 NMR, DLPNO-MP2 response
   Willem Van den Heuvel  : Paramagnetic NMR
   Boris Wezisla          : Elementary symmetry handling
   Frank Wennmohs         : Technical directorship


 We gratefully acknowledge several colleagues who have allowed us to
 interface, adapt or use parts of their codes:
   Stefan Grimme, W. Hujo, H. Kruse, P. Pracht,  : VdW corrections, initial TS optimization,
                  C. Bannwarth, S. Ehlert          DFT functionals, gCP, sTDA/sTD-DF
   Ed Valeev, F. Pavosevic, A. Kumar             : LibInt (2-el integral package), F12 methods
   Garnet Chan, S. Sharma, J. Yang, R. Olivares  : DMRG
   Ulf Ekstrom                                   : XCFun DFT Library
   Mihaly Kallay                                 : mrcc  (arbitrary order and MRCC methods)
   Jiri Pittner, Ondrej Demel                    : Mk-CCSD
   Frank Weinhold                                : gennbo (NPA and NBO analysis)
   Christopher J. Cramer and Donald G. Truhlar   : smd solvation model
   Lars Goerigk                                  : TD-DFT with DH, B97 family of functionals
   V. Asgeirsson, H. Jonsson                     : NEB implementation
   FAccTs GmbH                                   : IRC, NEB, NEB-TS, DLPNO-Multilevel, CI-OPT
                                                   MM, QMMM, 2- and 3-layer-ONIOM, Crystal-QMMM,
                                                   LR-CPCM, SF, NACMEs, symmetry and pop. for TD-DFT,
                                                   nearIR, NL-DFT gradient (VV10), updates on ESD,
                                                   ML-optimized integration grids
   S Lehtola, MJT Oliveira, MAL Marques          : LibXC Library
   Liviu Ungur et al                             : ANISO software


 Your calculation uses the libint2 library for the computation of 2-el integrals
 For citations please refer to: http://libint.valeyev.net

 Your ORCA version has been built with support for libXC version: 5.1.0
 For citations please refer to: https://tddft.org/programs/libxc/

 This ORCA versions uses:
   CBLAS   interface :  Fast vector & matrix operations
   LAPACKE interface :  Fast linear algebra routines
   SCALAPACK package :  Parallel linear algebra routines
   Shared memory     :  Shared parallel matrices
   BLAS/LAPACK       :  OpenBLAS 0.3.15  USE64BITINT DYNAMIC_ARCH NO_AFFINITY Haswell SINGLE_THREADED
        Core in use  :  Haswell
   Copyright (c) 2011-2014, The OpenBLAS Project


SCAN-COORDS

Reading of a custom basis requested
Basis file         : Pd_ugbs.basis
READING GTO-BASIS: PALLADIUM
Basis successfully read

================================================================================

----- Orbital basis set information -----
================================================================================
                                        WARNINGS
                       Please study these warnings very carefully!
================================================================================


INFO   : the flag for use of the SHARK integral package has been found!

================================================================================
                                       INPUT FILE
================================================================================
NAME = Pd_ugbs_pbe.inp
|  1> !uks pbe nori verytightscf soscf notrah defgrid3
|  2> 
|  3> %pal
|  4>   nprocs 32
|  5> end
|  6> %coords
|  7>   charge 0
|  8>   mult 1
|  9>   units bohrs
| 10>   coords
| 11>     Pd 0.0 0.0 0.0
| 12>   end
| 13> end
| 14> %basis
| 15>   gtoname "Pd_ugbs.basis"
| 16>   delECP Pd
| 17> end
| 18> %rel
| 19>   method zora
| 20>   modelpot 1, 0, 0, 0
| 21>   c 137.035999084
| 22> endd                         ****END OF INPUT****
================================================================================

                       ****************************
                       * Single Point Calculation *
                       ****************************

---------------------------------
CARTESIAN COORDINATES (ANGSTROEM)
---------------------------------
  Pd     0.000000    0.000000    0.000000

----------------------------
CARTESIAN COORDINATES (A.U.)
----------------------------
  NO LB      ZA    FRAG     MASS         X           Y           Z
   0 Pd   46.0000    0   106.400    0.000000    0.000000    0.000000

--------------------------------
INTERNAL COORDINATES (ANGSTROEM)
--------------------------------
 Pd     0   0   0     0.000000000000     0.00000000     0.00000000

---------------------------
INTERNAL COORDINATES (A.U.)
---------------------------
 Pd     0   0   0     0.000000000000     0.00000000     0.00000000

---------------------
BASIS SET INFORMATION
---------------------
There are 1 groups of distinct atoms

 Group   1 Type Pd  : 29s22p18d contracted to 29s22p18d pattern {11111111111111111111111111111/1111111111111111111111/111111111111111111}

Atom   0Pd   basis set group =>   1


           ************************************************************
           *        Program running with 32 parallel MPI-processes    *
           *              working on a common directory               *
           ************************************************************
------------------------------------------------------------------------------
                           ORCA GTO INTEGRAL CALCULATION
------------------------------------------------------------------------------
------------------------------------------------------------------------------
                   ___                                                        
                  /   \      - P O W E R E D   B Y -                         
                 /     \                                                     
                 |  |  |   _    _      __       _____    __    __             
                 |  |  |  | |  | |    /  \     |  _  \  |  |  /  |          
                  \  \/   | |  | |   /    \    | | | |  |  | /  /          
                 / \  \   | |__| |  /  /\  \   | |_| |  |  |/  /          
                |  |  |   |  __  | /  /__\  \  |    /   |      \           
                |  |  |   | |  | | |   __   |  |    \   |  |\   \          
                \     /   | |  | | |  |  |  |  | |\  \  |  | \   \       
                 \___/    |_|  |_| |__|  |__|  |_| \__\ |__|  \__/        
                                                                              
                      - O R C A' S   B I G   F R I E N D -                    
                                      &                                       
                       - I N T E G R A L  F E E D E R -                       
                                                                              
 v1 FN, 2020, v2 2021                                                         
------------------------------------------------------------------------------


Reading SHARK input file Pd_ugbs_pbe.SHARKINP.tmp ... ok
----------------------
SHARK INTEGRAL PACKAGE
----------------------

Number of atoms                             ...      1
Number of basis functions                   ...    185
Number of shells                            ...     69
Maximum angular momentum                    ...      2
Integral batch strategy                     ... SHARK/LIBINT Hybrid
RI-J (if used) integral strategy            ... SPLIT-RIJ (Revised 2003 algorithm where possible)
Printlevel                                  ...      1
Contraction scheme used                     ... SEGMENTED contraction
Coulomb Range Separation                    ... NOT USED
Exchange Range Separation                   ... NOT USED
Finite Nucleus Model                        ... NOT USED
Auxiliary Coulomb fitting basis             ... NOT available
Auxiliary J/K fitting basis                 ... NOT available
Auxiliary Correlation fitting basis         ... NOT available
Auxiliary 'external' fitting basis          ... NOT available
Integral threshold                          ...     1.000000e-12
Primitive cut-off                           ...     1.000000e-14
Primitive pair pre-selection threshold      ...     1.000000e-14

Calculating pre-screening integrals         ... done (  0.2 sec) Dimension = 69
Organizing shell pair data                  ... done (  0.1 sec)
Shell pair information
Total number of shell pairs                 ...      2415
Shell pairs after pre-screening             ...      2415
Total number of primitive shell pairs       ...      2415
Primitive shell pairs kept                  ...      2415
          la=0 lb=0:    435 shell pairs
          la=1 lb=0:    638 shell pairs
          la=1 lb=1:    253 shell pairs
          la=2 lb=0:    522 shell pairs
          la=2 lb=1:    396 shell pairs
          la=2 lb=2:    171 shell pairs

Calculating one electron integrals          ... done (  0.0 sec)
Calculating Nuclear repulsion               ... done (  0.0 sec) ENN=      0.000000000000 Eh

SHARK setup successfully completed in   0.5 seconds

Maximum memory used throughout the entire GTOINT-calculation: 6.0 MB


           ************************************************************
           *        Program running with 32 parallel MPI-processes    *
           *              working on a common directory               *
           ************************************************************
------------------------------------------------------------------------------
                          ORCA RELATIVISTIC HAMILTONIAN
------------------------------------------------------------------------------

Relativistic Method            ... ZORA(MP)
Treatment of potential         ... Van Wuellen
Nucleus model                  ... Point Nucleus
Speed of light used            ... 137.03599908400000


            *************************************************
            *         ZERO ORDER REGULAR APPROXIMATION      *
            *                     ZORA(MP)                  *
            *            Programmed by FN according to      *
            *                   C. van Wuellen              *
            *       J. Chem. Phys. (1998) vol 109, 392-399  *
            *************************************************

Terms included in model potential: +V(e,N)
Basis function cutoff value   ... 1.000000e-12
Loading the fitted atomic densities  (DKH4)  ... done
Calculating the cutoffs                      ... done
Number of fit functions                      ... 26
Setting up the integration grid ... done

Maximum memory used throughout the entire REL-calculation: 23.8 MB


           ************************************************************
           *        Program running with 32 parallel MPI-processes    *
           *              working on a common directory               *
           ************************************************************
-------------------------------------------------------------------------------
                                 ORCA SCF
-------------------------------------------------------------------------------

------------
SCF SETTINGS
------------
Hamiltonian:
 Density Functional     Method          .... DFT(GTOs)
 Exchange Functional    Exchange        .... PBE
   PBE kappa parameter   XKappa         ....  0.804000
   PBE mue parameter    XMuePBE         ....  0.219520
 Correlation Functional Correlation     .... PBE
   PBE beta parameter  CBetaPBE         ....  0.066725
 LDA part of GGA corr.  LDAOpt          .... PW91-LDA
 Gradients option       PostSCFGGA      .... off
   Density functional embedding theory  .... OFF
   NL short-range parameter             ....  6.400000

Relativistic Settings:
 Scalar relativistic method             .... ZORA
 Speed of light used       Velit        ....       137.035999
Orbital energies will be scaled


General Settings:
 Integral files         IntName         .... Pd_ugbs_pbe
 Hartree-Fock type      HFTyp           .... UHF
 Total Charge           Charge          ....    0
 Multiplicity           Mult            ....    1
 Number of Electrons    NEL             ....   46
 Basis Dimension        Dim             ....  185
 Nuclear Repulsion      ENuc            ....      0.0000000000 Eh

Convergence Acceleration:
 DIIS                   CNVDIIS         .... on
   Start iteration      DIISMaxIt       ....    12
   Startup error        DIISStart       ....  0.200000
   # of expansion vecs  DIISMaxEq       ....     5
   Bias factor          DIISBfac        ....   1.050
   Max. coefficient     DIISMaxC        ....  10.000
 Trust-Rad. Augm. Hess. CNVTRAH         .... off
 SOSCF                  CNVSOSCF        .... on
   Start iteration      SOSCFMaxIt      ....   150
   Startup grad/error   SOSCFStart      ....  0.003300
 Level Shifting         CNVShift        .... on
   Level shift para.    LevelShift      ....    0.2500
   Turn off err/grad.   ShiftErr        ....    0.0010
 Zerner damping         CNVZerner       .... off
 Static damping         CNVDamp         .... on
   Fraction old density DampFac         ....    0.7000
   Max. Damping (<1)    DampMax         ....    0.9800
   Min. Damping (>=0)   DampMin         ....    0.0000
   Turn off err/grad.   DampErr         ....    0.1000
 Fernandez-Rico         CNVRico         .... off

SCF Procedure:
 Maximum # iterations   MaxIter         ....   125
 SCF integral mode      SCFMode         .... Direct
   Integral package                     .... SHARK and LIBINT hybrid scheme
 Reset frequency        DirectResetFreq ....    20
 Integral Threshold     Thresh          ....  1.000e-12 Eh
 Primitive CutOff       TCut            ....  1.000e-14 Eh

Convergence Tolerance:
 Convergence Check Mode ConvCheckMode   .... Total+1el-Energy
 Convergence forced     ConvForced      .... 0
 Energy Change          TolE            ....  1.000e-09 Eh
 1-El. energy change                    ....  1.000e-06 Eh
 Orbital Gradient       TolG            ....  2.000e-06
 Orbital Rotation angle TolX            ....  2.000e-06
 DIIS Error             TolErr          ....  1.000e-08


Diagonalization of the overlap matrix:
Smallest eigenvalue                        ... 6.182e-05
Time for diagonalization                   ...    0.012 sec
Threshold for overlap eigenvalues          ... 1.000e-08
Number of eigenvalues below threshold      ... 0
Time for construction of square roots      ...    0.024 sec
Total time needed                          ...    0.038 sec

Time for model grid setup =    0.183 sec

------------------------------
INITIAL GUESS: MODEL POTENTIAL
------------------------------
Loading ZORA relativistic densities                ... done
Calculating cut-offs                               ... done
Initializing the effective Hamiltonian             ... done
Setting up the integral package (SHARK)            ... done
Starting the Coulomb interaction                   ... done (   0.3 sec)
Reading the grid                                   ... done
Mapping shells                                     ... done
Starting the XC term evaluation                    ... done (   0.0 sec)
  promolecular density results
     # of electrons  =     46.000000000
     EX              =   -146.296283348
     EC              =     -2.406783432
     EX+EC           =   -148.703066780
Transforming the Hamiltonian                       ... done (   0.0 sec)
Diagonalizing the Hamiltonian                      ... done (   0.0 sec)
Back transforming the eigenvectors                 ... done (   0.0 sec)
Now organizing SCF variables                       ... done
                      ------------------
                      INITIAL GUESS DONE (   0.5 sec)
                      ------------------
-------------------
DFT GRID GENERATION
-------------------

General Integration Accuracy     IntAcc      ... 4.959
Radial Grid Type                 RadialGrid  ... OptM3 with GC (2021)
Angular Grid (max. ang.)         AngularGrid ... 6 (Lebedev-590)
Angular grid pruning method      GridPruning ... 4 (adaptive)
Weight generation scheme         WeightScheme... Becke
Basis function cutoff            BFCut       ... 1.0000e-12
Integration weight cutoff        WCut        ... 1.0000e-14
Angular grids for H and He will be reduced by one unit
Partially contracted basis set               ... off
Rotationally invariant grid construction     ... off

Total number of grid points                  ...    65888
Total number of batches                      ...     1030
Average number of points per batch           ...       63
Average number of grid points per atom       ...    65888
Time for grid setup =    4.152 sec

--------------
SCF ITERATIONS
--------------
ITER       Energy         Delta-E        Max-DP      RMS-DP      [F,P]     Damp
               ***  Starting incremental Fock matrix formation  ***
  0  -5127.3610557613   0.000000000000 0.00625211  0.00013814  2.6674902 0.7000
  1  -5127.3754288028  -0.014373041558 0.00298180  0.00006137  1.8448925 0.7000
  2  -5127.3811617214  -0.005732918524 0.00237091  0.00003090  1.2771485 0.7000
  3  -5127.3853615874  -0.004199866054 0.00150477  0.00001921  0.8847352 0.7000
                      *** Initiating the SOSCF procedure ***
                      *** Re-Reading the Fockian *** 
                      *** Removing any level shift *** 
ITER      Energy       Delta-E        Grad      Rot      Max-DP    RMS-DP
  4  -5127.38832469  -0.0029631027  0.002374  0.002374  0.002816  0.000033
               *** Restarting incremental Fock matrix formation ***
  5  -5127.39497273  -0.0066480391  0.005290  0.004714  0.001627  0.000044
  6  -5127.39465289   0.0003198419  0.004826  0.003698  0.000983  0.000034
  7  -5127.39505315  -0.0004002623  0.001028  0.000072  0.000244  0.000003
  8  -5127.39505452  -0.0000013695  0.000511  0.000057  0.000086  0.000001
  9  -5127.39505510  -0.0000005852  0.000012  0.000006  0.000004  0.000000
 10  -5127.39505510  -0.0000000003  0.000002  0.000001  0.000001  0.000000
                 **** Energy Check signals convergence ****
              ***Rediagonalizing the Fockian in SOSCF/NRSCF***

               *****************************************************
               *                     SUCCESS                       *
               *           SCF CONVERGED AFTER  11 CYCLES          *
               *****************************************************


----------------
TOTAL SCF ENERGY
----------------

Total Energy       :        -5127.39505510 Eh         -139523.51269 eV

Components:
Nuclear Repulsion  :            0.00000000 Eh               0.00000 eV
Electronic Energy  :        -5127.39505510 Eh         -139523.51269 eV
One Electron Energy:        -7050.46138546 Eh         -191852.80791 eV
Two Electron Energy:         1923.06633035 Eh           52329.29522 eV

Virial components:
Potential Energy   :       -10452.08960936 Eh         -284415.81769 eV
Kinetic Energy     :         5324.69455426 Eh          144892.30500 eV
Virial Ratio       :            1.96294633


DFT components:
N(Alpha)           :       23.000000000005 electrons
N(Beta)            :       23.000000000005 electrons
N(Total)           :       46.000000000010 electrons
E(X)               :     -142.899168011322 Eh       
E(C)               :       -2.405434595715 Eh       
E(XC)              :     -145.304602607036 Eh       
DFET-embed. en.    :        0.000000000000 Eh       

---------------
SCF CONVERGENCE
---------------

  Last Energy change         ...    1.0914e-11  Tolerance :   1.0000e-09
  Last MAX-Density change    ...    4.0296e-08  Tolerance :   1.0000e-08
  Last RMS-Density change    ...    5.0953e-10  Tolerance :   1.0000e-09
  Last Orbital Gradient      ...    6.0012e-08  Tolerance :   2.0000e-06
  Last Orbital Rotation      ...    1.1665e-09  Tolerance :   2.0000e-06

             **** THE GBW FILE WAS UPDATED (Pd_ugbs_pbe.gbw) ****
             **** DENSITY Pd_ugbs_pbe.scfp WAS UPDATED ****
             **** ENERGY FILE WAS UPDATED (Pd_ugbs_pbe.en.tmp) ****
----------------------
UHF SPIN CONTAMINATION
----------------------

Warning: in a DFT calculation there is little theoretical justification to 
         calculate <S**2> as in Hartree-Fock theory. We will do it anyways
         but you should keep in mind that the values have only limited relevance

Expectation value of <S**2>     :     0.000000
Ideal value S*(S+1) for S=0.0   :     0.000000
Deviation                       :     0.000000

             **** THE GBW FILE WAS UPDATED (Pd_ugbs_pbe.gbw) ****
             **** DENSITY Pd_ugbs_pbe.scfp WAS UPDATED ****
----------------
ORBITAL ENERGIES
----------------
                 SPIN UP ORBITALS
  NO   OCC          E(Eh)            E(eV) 
   0   1.0000    -918.267948    -24987.3412 
   1   1.0000    -131.045466     -3565.9284 
   2   1.0000    -117.342792     -3193.0597 
   3   1.0000    -117.342792     -3193.0597 
   4   1.0000    -117.342792     -3193.0597 
   5   1.0000     -23.530220      -640.2898 
   6   1.0000     -19.065141      -518.7889 
   7   1.0000     -19.065141      -518.7889 
   8   1.0000     -19.065141      -518.7889 
   9   1.0000     -11.992220      -326.3249 
  10   1.0000     -11.992220      -326.3249 
  11   1.0000     -11.992220      -326.3249 
  12   1.0000     -11.992220      -326.3249 
  13   1.0000     -11.992220      -326.3249 
  14   1.0000      -3.157020       -85.9069 
  15   1.0000      -1.891107       -51.4596 
  16   1.0000      -1.891107       -51.4596 
  17   1.0000      -1.891107       -51.4596 
  18   1.0000      -0.147381        -4.0104 
  19   1.0000      -0.147381        -4.0104 
  20   1.0000      -0.147381        -4.0104 
  21   1.0000      -0.147381        -4.0104 
  22   1.0000      -0.147381        -4.0104 
  23   0.0000      -0.091949        -2.5021 
  24   0.0000       0.076537         2.0827 
  25   0.0000       0.076537         2.0827 
  26   0.0000       0.076537         2.0827 
  27   0.0000       0.146560         3.9881 
  28   0.0000       0.146560         3.9881 
  29   0.0000       0.146560         3.9881 
  30   0.0000       0.146560         3.9881 
  31   0.0000       0.146560         3.9881 
  32   0.0000       0.531385        14.4597 
  33   0.0000       0.531385        14.4597 
  34   0.0000       0.531385        14.4597 
  35   0.0000       0.531385        14.4597 
  36   0.0000       0.531385        14.4597 
  37   0.0000       0.658944        17.9308 
  38   0.0000       0.785046        21.3622 
  39   0.0000       0.785046        21.3622 
  40   0.0000       0.785046        21.3622 
  41   0.0000       1.374769        37.4094 
  42   0.0000       1.374769        37.4094 
  43   0.0000       1.374769        37.4094 
  44   0.0000       1.374769        37.4094 
  45   0.0000       1.374769        37.4094 
  46   0.0000       2.627123        71.4877 
  47   0.0000       2.627123        71.4877 
  48   0.0000       2.627123        71.4877 
  49   0.0000       2.664096        72.4937 
  50   0.0000       3.225313        87.7652 
  51   0.0000       3.225313        87.7652 
  52   0.0000       3.225313        87.7652 
  53   0.0000       3.225313        87.7652 
  54   0.0000       3.225313        87.7652 
  55   0.0000       7.190968       195.6762 
  56   0.0000       7.190968       195.6762 
  57   0.0000       7.190968       195.6762 
  58   0.0000       7.361887       200.3271 
  59   0.0000       7.361887       200.3271 
  60   0.0000       7.361887       200.3271 
  61   0.0000       7.361887       200.3271 
  62   0.0000       7.361887       200.3271 
  63   0.0000       7.941840       216.1085 
  64   0.0000      16.844198       458.3539 
  65   0.0000      16.844198       458.3539 
  66   0.0000      16.844198       458.3539 
  67   0.0000      16.844198       458.3539 
  68   0.0000      16.844198       458.3539 
  69   0.0000      18.842584       512.7328 
  70   0.0000      18.842584       512.7328 
  71   0.0000      18.842584       512.7328 
  72   0.0000      22.314538       607.2094 
  73   0.0000      38.814605      1056.1991 
  74   0.0000      38.814605      1056.1991 
  75   0.0000      38.814605      1056.1991 
  76   0.0000      38.814605      1056.1991 
  77   0.0000      38.814605      1056.1991 
  78   0.0000      48.994199      1333.1999 
  79   0.0000      48.994199      1333.1999 
  80   0.0000      48.994199      1333.1999 
  81   0.0000      61.910297      1684.6648 
  82   0.0000      88.964719      2420.8531 
  83   0.0000      88.964719      2420.8531 
  84   0.0000      88.964719      2420.8531 
  85   0.0000      88.964719      2420.8531 
  86   0.0000      88.964719      2420.8531 
  87   0.0000     124.408431      3385.3255 
  88   0.0000     124.408431      3385.3255 
  89   0.0000     124.408431      3385.3255 
  90   0.0000     166.805021      4538.9954 
  91   0.0000     200.327899      5451.1993 
  92   0.0000     200.327899      5451.1993 
  93   0.0000     200.327899      5451.1993 
  94   0.0000     200.327899      5451.1993 
  95   0.0000     200.327899      5451.1993 
  96   0.0000     302.295361      8225.8750 
  97   0.0000     302.295361      8225.8750 
  98   0.0000     302.295361      8225.8750 
  99   0.0000     428.075293     11648.5209 
 100   0.0000     441.341911     12009.5239 
 101   0.0000     441.341911     12009.5239 
 102   0.0000     441.341911     12009.5239 
 103   0.0000     441.341911     12009.5239 
 104   0.0000     441.341911     12009.5239 
 105   0.0000     699.015851     19021.1883 
 106   0.0000     699.015851     19021.1883 
 107   0.0000     699.015851     19021.1883 
 108   0.0000     950.387839     25861.3679 
 109   0.0000     950.387839     25861.3679 
 110   0.0000     950.387839     25861.3679 
 111   0.0000     950.387839     25861.3679 
 112   0.0000     950.387839     25861.3679 
 113   0.0000    1038.213912     28251.2368 
 114   0.0000    1545.981108     42068.2846 
 115   0.0000    1545.981108     42068.2846 
 116   0.0000    1545.981108     42068.2846 
 117   0.0000    2004.000340     54531.6216 
 118   0.0000    2004.000340     54531.6216 
 119   0.0000    2004.000340     54531.6216 
 120   0.0000    2004.000340     54531.6216 
 121   0.0000    2004.000340     54531.6216 
 122   0.0000    2381.755526     64810.8628 
 123   0.0000    3298.328277     89752.0753 
 124   0.0000    3298.328277     89752.0753 
 125   0.0000    3298.328277     89752.0753 
 126   0.0000    4153.672218    113027.1672 
 127   0.0000    4153.672218    113027.1672 
 128   0.0000    4153.672218    113027.1672 
 129   0.0000    4153.672218    113027.1672 
 130   0.0000    4153.672218    113027.1672 
 131   0.0000    5204.829781    141630.6187 
 132   0.0000    6839.240168    186105.1864 
 133   0.0000    6839.240168    186105.1864 
 134   0.0000    6839.240168    186105.1864 
 135   0.0000    8499.224138    231275.6466 
 136   0.0000    8499.224138    231275.6466 
 137   0.0000    8499.224138    231275.6466 
 138   0.0000    8499.224138    231275.6466 
 139   0.0000    8499.224138    231275.6466 
 140   0.0000   10936.904143    297608.2918 
 141   0.0000   13857.693493    377087.0107 
 142   0.0000   13857.693493    377087.0107 
 143   0.0000   13857.693493    377087.0107 
 144   0.0000   17428.485956    474253.2134 
 145   0.0000   17428.485956    474253.2134 
 146   0.0000   17428.485956    474253.2134 
 147   0.0000   17428.485956    474253.2134 
 148   0.0000   17428.485956    474253.2134 
 149   0.0000   22277.965521    606214.2612 
 150   0.0000   27555.120657    749812.9528 
 151   0.0000   27555.120657    749812.9528 
 152   0.0000   27555.120657    749812.9528 
 153   0.0000   36049.599503    980959.4735 
 154   0.0000   36049.599503    980959.4735 
 155   0.0000   36049.599503    980959.4735 
 156   0.0000   36049.599503    980959.4735 
 157   0.0000   36049.599503    980959.4735 
 158   0.0000   44229.888548   1203556.4550 
 159   0.0000   53837.443725   1464991.3225 
 160   0.0000   53837.443725   1464991.3225 
 161   0.0000   53837.443725   1464991.3225 
 162   0.0000   85826.726374   2335463.9573 
 163   0.0000   103820.399135   2825096.6856 
 164   0.0000   103820.399135   2825096.6856 
 165   0.0000   103820.399135   2825096.6856 
 166   0.0000   162921.855283   4433329.0683 
 167   0.0000   196502.068275   5347093.1187 
 168   0.0000   196502.068275   5347093.1187 
 169   0.0000   196502.068275   5347093.1187 
 170   0.0000   302300.846545   8226024.2375 
 171   0.0000   374905.036799   10201684.6949 
 172   0.0000   374905.036799   10201684.6949 
 173   0.0000   374905.036799   10201684.6949 
 174   0.0000   547668.657187   14902821.8069 
 175   0.0000   684332.658345   18621638.3394 
 176   0.0000   684332.658346   18621638.3394 
 177   0.0000   684332.658346   18621638.3394 
 178   0.0000   966584.277270   26302095.3572 
 179   0.0000   1662981.644963   45252031.1282 
 180   0.0000   2778640.041591   75610639.5023 
 181   0.0000   4566708.012414   124266442.6016 
 182   0.0000   7217904.661324   196409171.0839 
 183   0.0000   11910504.384072   324101301.2824 
 184   0.0000   17497956.006595   476143589.6118 

                 SPIN DOWN ORBITALS
  NO   OCC          E(Eh)            E(eV) 
   0   1.0000    -918.267948    -24987.3412 
   1   1.0000    -131.045466     -3565.9284 
   2   1.0000    -117.342792     -3193.0597 
   3   1.0000    -117.342792     -3193.0597 
   4   1.0000    -117.342792     -3193.0597 
   5   1.0000     -23.530220      -640.2898 
   6   1.0000     -19.065141      -518.7889 
   7   1.0000     -19.065141      -518.7889 
   8   1.0000     -19.065141      -518.7889 
   9   1.0000     -11.992220      -326.3249 
  10   1.0000     -11.992220      -326.3249 
  11   1.0000     -11.992220      -326.3249 
  12   1.0000     -11.992220      -326.3249 
  13   1.0000     -11.992220      -326.3249 
  14   1.0000      -3.157020       -85.9069 
  15   1.0000      -1.891107       -51.4596 
  16   1.0000      -1.891107       -51.4596 
  17   1.0000      -1.891107       -51.4596 
  18   1.0000      -0.147381        -4.0104 
  19   1.0000      -0.147381        -4.0104 
  20   1.0000      -0.147381        -4.0104 
  21   1.0000      -0.147381        -4.0104 
  22   1.0000      -0.147381        -4.0104 
  23   0.0000      -0.091949        -2.5021 
  24   0.0000       0.076537         2.0827 
  25   0.0000       0.076537         2.0827 
  26   0.0000       0.076537         2.0827 
  27   0.0000       0.146560         3.9881 
  28   0.0000       0.146560         3.9881 
  29   0.0000       0.146560         3.9881 
  30   0.0000       0.146560         3.9881 
  31   0.0000       0.146560         3.9881 
  32   0.0000       0.531385        14.4597 
  33   0.0000       0.531385        14.4597 
  34   0.0000       0.531385        14.4597 
  35   0.0000       0.531385        14.4597 
  36   0.0000       0.531385        14.4597 
  37   0.0000       0.658944        17.9308 
  38   0.0000       0.785046        21.3622 
  39   0.0000       0.785046        21.3622 
  40   0.0000       0.785046        21.3622 
  41   0.0000       1.374769        37.4094 
  42   0.0000       1.374769        37.4094 
  43   0.0000       1.374769        37.4094 
  44   0.0000       1.374769        37.4094 
  45   0.0000       1.374769        37.4094 
  46   0.0000       2.627123        71.4877 
  47   0.0000       2.627123        71.4877 
  48   0.0000       2.627123        71.4877 
  49   0.0000       2.664096        72.4937 
  50   0.0000       3.225313        87.7652 
  51   0.0000       3.225313        87.7652 
  52   0.0000       3.225313        87.7652 
  53   0.0000       3.225313        87.7652 
  54   0.0000       3.225313        87.7652 
  55   0.0000       7.190968       195.6762 
  56   0.0000       7.190968       195.6762 
  57   0.0000       7.190968       195.6762 
  58   0.0000       7.361887       200.3271 
  59   0.0000       7.361887       200.3271 
  60   0.0000       7.361887       200.3271 
  61   0.0000       7.361887       200.3271 
  62   0.0000       7.361887       200.3271 
  63   0.0000       7.941840       216.1085 
  64   0.0000      16.844198       458.3539 
  65   0.0000      16.844198       458.3539 
  66   0.0000      16.844198       458.3539 
  67   0.0000      16.844198       458.3539 
  68   0.0000      16.844198       458.3539 
  69   0.0000      18.842584       512.7328 
  70   0.0000      18.842584       512.7328 
  71   0.0000      18.842584       512.7328 
  72   0.0000      22.314538       607.2094 
  73   0.0000      38.814605      1056.1991 
  74   0.0000      38.814605      1056.1991 
  75   0.0000      38.814605      1056.1991 
  76   0.0000      38.814605      1056.1991 
  77   0.0000      38.814605      1056.1991 
  78   0.0000      48.994199      1333.1999 
  79   0.0000      48.994199      1333.1999 
  80   0.0000      48.994199      1333.1999 
  81   0.0000      61.910297      1684.6648 
  82   0.0000      88.964719      2420.8531 
  83   0.0000      88.964719      2420.8531 
  84   0.0000      88.964719      2420.8531 
  85   0.0000      88.964719      2420.8531 
  86   0.0000      88.964719      2420.8531 
  87   0.0000     124.408431      3385.3255 
  88   0.0000     124.408431      3385.3255 
  89   0.0000     124.408431      3385.3255 
  90   0.0000     166.805021      4538.9954 
  91   0.0000     200.327899      5451.1993 
  92   0.0000     200.327899      5451.1993 
  93   0.0000     200.327899      5451.1993 
  94   0.0000     200.327899      5451.1993 
  95   0.0000     200.327899      5451.1993 
  96   0.0000     302.295361      8225.8750 
  97   0.0000     302.295361      8225.8750 
  98   0.0000     302.295361      8225.8750 
  99   0.0000     428.075293     11648.5209 
 100   0.0000     441.341911     12009.5239 
 101   0.0000     441.341911     12009.5239 
 102   0.0000     441.341911     12009.5239 
 103   0.0000     441.341911     12009.5239 
 104   0.0000     441.341911     12009.5239 
 105   0.0000     699.015851     19021.1883 
 106   0.0000     699.015851     19021.1883 
 107   0.0000     699.015851     19021.1883 
 108   0.0000     950.387839     25861.3679 
 109   0.0000     950.387839     25861.3679 
 110   0.0000     950.387839     25861.3679 
 111   0.0000     950.387839     25861.3679 
 112   0.0000     950.387839     25861.3679 
 113   0.0000    1038.213912     28251.2368 
 114   0.0000    1545.981108     42068.2846 
 115   0.0000    1545.981108     42068.2846 
 116   0.0000    1545.981108     42068.2846 
 117   0.0000    2004.000340     54531.6216 
 118   0.0000    2004.000340     54531.6216 
 119   0.0000    2004.000340     54531.6216 
 120   0.0000    2004.000340     54531.6216 
 121   0.0000    2004.000340     54531.6216 
 122   0.0000    2381.755526     64810.8628 
 123   0.0000    3298.328277     89752.0753 
 124   0.0000    3298.328277     89752.0753 
 125   0.0000    3298.328277     89752.0753 
 126   0.0000    4153.672218    113027.1672 
 127   0.0000    4153.672218    113027.1672 
 128   0.0000    4153.672218    113027.1672 
 129   0.0000    4153.672218    113027.1672 
 130   0.0000    4153.672218    113027.1672 
 131   0.0000    5204.829781    141630.6187 
 132   0.0000    6839.240168    186105.1864 
 133   0.0000    6839.240168    186105.1864 
 134   0.0000    6839.240168    186105.1864 
 135   0.0000    8499.224138    231275.6466 
 136   0.0000    8499.224138    231275.6466 
 137   0.0000    8499.224138    231275.6466 
 138   0.0000    8499.224138    231275.6466 
 139   0.0000    8499.224138    231275.6466 
 140   0.0000   10936.904143    297608.2918 
 141   0.0000   13857.693493    377087.0107 
 142   0.0000   13857.693493    377087.0107 
 143   0.0000   13857.693493    377087.0107 
 144   0.0000   17428.485956    474253.2134 
 145   0.0000   17428.485956    474253.2134 
 146   0.0000   17428.485956    474253.2134 
 147   0.0000   17428.485956    474253.2134 
 148   0.0000   17428.485956    474253.2134 
 149   0.0000   22277.965521    606214.2612 
 150   0.0000   27555.120657    749812.9528 
 151   0.0000   27555.120657    749812.9528 
 152   0.0000   27555.120657    749812.9528 
 153   0.0000   36049.599503    980959.4735 
 154   0.0000   36049.599503    980959.4735 
 155   0.0000   36049.599503    980959.4735 
 156   0.0000   36049.599503    980959.4735 
 157   0.0000   36049.599503    980959.4735 
 158   0.0000   44229.888548   1203556.4550 
 159   0.0000   53837.443725   1464991.3225 
 160   0.0000   53837.443725   1464991.3225 
 161   0.0000   53837.443725   1464991.3225 
 162   0.0000   85826.726374   2335463.9573 
 163   0.0000   103820.399135   2825096.6856 
 164   0.0000   103820.399135   2825096.6856 
 165   0.0000   103820.399135   2825096.6856 
 166   0.0000   162921.855283   4433329.0683 
 167   0.0000   196502.068275   5347093.1187 
 168   0.0000   196502.068275   5347093.1187 
 169   0.0000   196502.068275   5347093.1187 
 170   0.0000   302300.846545   8226024.2375 
 171   0.0000   374905.036799   10201684.6949 
 172   0.0000   374905.036799   10201684.6949 
 173   0.0000   374905.036799   10201684.6949 
 174   0.0000   547668.657187   14902821.8069 
 175   0.0000   684332.658345   18621638.3394 
 176   0.0000   684332.658346   18621638.3394 
 177   0.0000   684332.658346   18621638.3394 
 178   0.0000   966584.277270   26302095.3572 
 179   0.0000   1662981.644963   45252031.1282 
 180   0.0000   2778640.041592   75610639.5023 
 181   0.0000   4566708.012414   124266442.6016 
 182   0.0000   7217904.661324   196409171.0839 
 183   0.0000   11910504.384072   324101301.2824 
 184   0.0000   17497956.006595   476143589.6118 

                    ********************************
                    * MULLIKEN POPULATION ANALYSIS *
                    ********************************

--------------------------------------------
MULLIKEN ATOMIC CHARGES AND SPIN POPULATIONS
--------------------------------------------
   0 Pd:   -0.000000    0.000000
Sum of atomic charges         :   -0.0000000
Sum of atomic spin populations:    0.0000000

-----------------------------------------------------
MULLIKEN REDUCED ORBITAL CHARGES AND SPIN POPULATIONS
-----------------------------------------------------
CHARGE
  0 Pds       :     8.000000  s :     8.000000
      pz      :     6.000000  p :    18.000000
      px      :     6.000000
      py      :     6.000000
      dz2     :     4.000000  d :    20.000000
      dxz     :     4.000000
      dyz     :     4.000000
      dx2y2   :     4.000000
      dxy     :     4.000000

SPIN
  0 Pds       :    -0.000000  s :    -0.000000
      pz      :     0.000000  p :     0.000000
      px      :     0.000000
      py      :     0.000000
      dz2     :    -0.000000  d :    -0.000000
      dxz     :     0.000000
      dyz     :    -0.000000
      dx2y2   :    -0.000000
      dxy     :    -0.000000


                     *******************************
                     * LOEWDIN POPULATION ANALYSIS *
                     *******************************

-------------------------------------------
LOEWDIN ATOMIC CHARGES AND SPIN POPULATIONS
-------------------------------------------
   0 Pd:    0.000000    0.000000

----------------------------------------------------
LOEWDIN REDUCED ORBITAL CHARGES AND SPIN POPULATIONS
----------------------------------------------------
CHARGE
  0 Pds       :     8.000000  s :     8.000000
      pz      :     6.000000  p :    18.000000
      px      :     6.000000
      py      :     6.000000
      dz2     :     4.000000  d :    20.000000
      dxz     :     4.000000
      dyz     :     4.000000
      dx2y2   :     4.000000
      dxy     :     4.000000

SPIN
  0 Pds       :    -0.000000  s :    -0.000000
      pz      :     0.000000  p :     0.000000
      px      :     0.000000
      py      :     0.000000
      dz2     :    -0.000000  d :    -0.000000
      dxz     :     0.000000
      dyz     :    -0.000000
      dx2y2   :    -0.000000
      dxy     :    -0.000000


                      *****************************
                      * MAYER POPULATION ANALYSIS *
                      *****************************

  NA   - Mulliken gross atomic population
  ZA   - Total nuclear charge
  QA   - Mulliken gross atomic charge
  VA   - Mayer's total valence
  BVA  - Mayer's bonded valence
  FA   - Mayer's free valence

  ATOM       NA         ZA         QA         VA         BVA        FA
  0 Pd    46.0000    46.0000     0.0000     0.0000     0.0000     0.0000

  Mayer bond orders larger than 0.100000


-------
TIMINGS
-------

Total SCF time: 0 days 0 hours 0 min 12 sec 

Total time                  ....      12.825 sec
Sum of individual times     ....      12.234 sec  ( 95.4%)

Fock matrix formation       ....       7.163 sec  ( 55.8%)
  XC integration            ....       1.563 sec  ( 21.8% of F)
    Basis function eval.    ....       0.074 sec  (  4.7% of XC)
    Density eval.           ....       0.131 sec  (  8.4% of XC)
    XC-Functional eval.     ....       0.042 sec  (  2.7% of XC)
    XC-Potential eval.      ....       0.158 sec  ( 10.1% of XC)
Diagonalization             ....       0.148 sec  (  1.2%)
Density matrix formation    ....       0.016 sec  (  0.1%)
Population analysis         ....       0.078 sec  (  0.6%)
Initial guess               ....       0.351 sec  (  2.7%)
Orbital Transformation      ....       0.000 sec  (  0.0%)
Orbital Orthonormalization  ....       0.000 sec  (  0.0%)
DIIS solution               ....       0.043 sec  (  0.3%)
SOSCF solution              ....       0.100 sec  (  0.8%)
Grid generation             ....       4.335 sec  ( 33.8%)

Maximum memory used throughout the entire SCF-calculation: 232.6 MB

-------------------------   --------------------
FINAL SINGLE POINT ENERGY     -5127.395055104654
-------------------------   --------------------


                            ***************************************
                            *     ORCA property calculations      *
                            ***************************************

                                    ---------------------
                                    Active property flags
                                    ---------------------
   (+) Dipole Moment


------------------------------------------------------------------------------
                       ORCA ELECTRIC PROPERTIES CALCULATION
------------------------------------------------------------------------------

Dipole Moment Calculation                       ... on
Quadrupole Moment Calculation                   ... off
Polarizability Calculation                      ... off
GBWName                                         ... Pd_ugbs_pbe.gbw
Electron density                                ... Pd_ugbs_pbe.scfp
The origin for moment calculation is the CENTER OF MASS  = ( 0.000000,  0.000000  0.000000)

-------------
DIPOLE MOMENT
-------------
                                X             Y             Z
Electronic contribution:     -0.00000       0.00000      -0.00000
Nuclear contribution   :      0.00000       0.00000       0.00000
                        -----------------------------------------
Total Dipole Moment    :     -0.00000       0.00000      -0.00000
                        -----------------------------------------
Magnitude (a.u.)       :      0.00000
Magnitude (Debye)      :      0.00000



--------------------
Rotational spectrum 
--------------------
 
Rotational constants in cm-1:     0.000000     0.000000     0.000000 
Rotational constants in MHz :     0.000000     0.000000     0.000000 

 Dipole components along the rotational axes: 
x,y,z [a.u.] :    -0.000000     0.000000    -0.000000 
x,y,z [Debye]:    -0.000000     0.000000    -0.000000 

 

Timings for individual modules:

Sum of individual times         ...       26.400 sec (=   0.440 min)
GTO integral calculation        ...        4.127 sec (=   0.069 min)  15.6 %
Relativistic integrals          ...        6.928 sec (=   0.115 min)  26.2 %
SCF iterations                  ...       15.345 sec (=   0.256 min)  58.1 %
                             ****ORCA TERMINATED NORMALLY****
TOTAL RUN TIME: 0 days 0 hours 0 minutes 31 seconds 822 msec
