
                                 *****************
                                 * O   R   C   A *
                                 *****************

                                            #,                                       
                                            ###                                      
                                            ####                                     
                                            #####                                    
                                            ######                                   
                                           ########,                                 
                                     ,,################,,,,,                         
                               ,,#################################,,                 
                          ,,##########################################,,             
                       ,#########################################, ''#####,          
                    ,#############################################,,   '####,        
                  ,##################################################,,,,####,       
                ,###########''''           ''''###############################       
              ,#####''   ,,,,##########,,,,          '''####'''          '####       
            ,##' ,,,,###########################,,,                        '##       
           ' ,,###''''                  '''############,,,                           
         ,,##''                                '''############,,,,        ,,,,,,###''
      ,#''                                            '''#######################'''  
     '                                                          ''''####''''         
             ,#######,   #######,   ,#######,      ##                                
            ,#'     '#,  ##    ##  ,#'     '#,    #''#        ######   ,####,        
            ##       ##  ##   ,#'  ##            #'  '#       #        #'  '#        
            ##       ##  #######   ##           ,######,      #####,   #    #        
            '#,     ,#'  ##    ##  '#,     ,#' ,#      #,         ##   #,  ,#        
             '#######'   ##     ##  '#######'  #'      '#     #####' # '####'        



                  #######################################################
                  #                        -***-                        #
                  #          Department of theory and spectroscopy      #
                  #    Directorship and core code : Frank Neese         #
                  #        Max Planck Institute fuer Kohlenforschung    #
                  #                Kaiser Wilhelm Platz 1               #
                  #                 D-45470 Muelheim/Ruhr               #
                  #                      Germany                        #
                  #                                                     #
                  #                  All rights reserved                #
                  #                        -***-                        #
                  #######################################################


                         Program Version 5.0.1 -  RELEASE  -


 With contributions from (in alphabetic order):
   Daniel Aravena         : Magnetic Suceptibility
   Michael Atanasov       : Ab Initio Ligand Field Theory (pilot matlab implementation)
   Alexander A. Auer      : GIAO ZORA, VPT2 properties, NMR spectrum
   Ute Becker             : Parallelization
   Giovanni Bistoni       : ED, misc. LED, open-shell LED, HFLD
   Martin Brehm           : Molecular dynamics
   Dmytro Bykov           : SCF Hessian
   Vijay G. Chilkuri      : MRCI spin determinant printing, contributions to CSF-ICE
   Dipayan Datta          : RHF DLPNO-CCSD density
   Achintya Kumar Dutta   : EOM-CC, STEOM-CC
   Dmitry Ganyushin       : Spin-Orbit,Spin-Spin,Magnetic field MRCI
   Miquel Garcia          : C-PCM and meta-GGA Hessian, CC/C-PCM, Gaussian charge scheme
   Yang Guo               : DLPNO-NEVPT2, F12-NEVPT2, CIM, IAO-localization
   Andreas Hansen         : Spin unrestricted coupled pair/coupled cluster methods
   Benjamin Helmich-Paris : MC-RPA, TRAH-SCF, COSX integrals
   Lee Huntington         : MR-EOM, pCC
   Robert Izsak           : Overlap fitted RIJCOSX, COSX-SCS-MP3, EOM
   Marcus Kettner         : VPT2
   Christian Kollmar      : KDIIS, OOCD, Brueckner-CCSD(T), CCSD density, CASPT2, CASPT2-K
   Simone Kossmann        : Meta GGA functionals, TD-DFT gradient, OOMP2, MP2 Hessian
   Martin Krupicka        : Initial AUTO-CI
   Lucas Lang             : DCDCAS
   Marvin Lechner         : AUTO-CI (C++ implementation), FIC-MRCC
   Dagmar Lenk            : GEPOL surface, SMD
   Dimitrios Liakos       : Extrapolation schemes; Compound Job, initial MDCI parallelization
   Dimitrios Manganas     : Further ROCIS development; embedding schemes
   Dimitrios Pantazis     : SARC Basis sets
   Anastasios Papadopoulos: AUTO-CI, single reference methods and gradients
   Taras Petrenko         : DFT Hessian,TD-DFT gradient, ASA, ECA, R-Raman, ABS, FL, XAS/XES, NRVS
   Peter Pinski           : DLPNO-MP2, DLPNO-MP2 Gradient
   Christoph Reimann      : Effective Core Potentials
   Marius Retegan         : Local ZFS, SOC
   Christoph Riplinger    : Optimizer, TS searches, QM/MM, DLPNO-CCSD(T), (RO)-DLPNO pert. Triples
   Tobias Risthaus        : Range-separated hybrids, TD-DFT gradient, RPA, STAB
   Michael Roemelt        : Original ROCIS implementation
   Masaaki Saitow         : Open-shell DLPNO-CCSD energy and density
   Barbara Sandhoefer     : DKH picture change effects
   Avijit Sen             : IP-ROCIS
   Kantharuban Sivalingam : CASSCF convergence, NEVPT2, FIC-MRCI
   Bernardo de Souza      : ESD, SOC TD-DFT
   Georgi Stoychev        : AutoAux, RI-MP2 NMR, DLPNO-MP2 response
   Willem Van den Heuvel  : Paramagnetic NMR
   Boris Wezisla          : Elementary symmetry handling
   Frank Wennmohs         : Technical directorship


 We gratefully acknowledge several colleagues who have allowed us to
 interface, adapt or use parts of their codes:
   Stefan Grimme, W. Hujo, H. Kruse, P. Pracht,  : VdW corrections, initial TS optimization,
                  C. Bannwarth, S. Ehlert          DFT functionals, gCP, sTDA/sTD-DF
   Ed Valeev, F. Pavosevic, A. Kumar             : LibInt (2-el integral package), F12 methods
   Garnet Chan, S. Sharma, J. Yang, R. Olivares  : DMRG
   Ulf Ekstrom                                   : XCFun DFT Library
   Mihaly Kallay                                 : mrcc  (arbitrary order and MRCC methods)
   Jiri Pittner, Ondrej Demel                    : Mk-CCSD
   Frank Weinhold                                : gennbo (NPA and NBO analysis)
   Christopher J. Cramer and Donald G. Truhlar   : smd solvation model
   Lars Goerigk                                  : TD-DFT with DH, B97 family of functionals
   V. Asgeirsson, H. Jonsson                     : NEB implementation
   FAccTs GmbH                                   : IRC, NEB, NEB-TS, DLPNO-Multilevel, CI-OPT
                                                   MM, QMMM, 2- and 3-layer-ONIOM, Crystal-QMMM,
                                                   LR-CPCM, SF, NACMEs, symmetry and pop. for TD-DFT,
                                                   nearIR, NL-DFT gradient (VV10), updates on ESD,
                                                   ML-optimized integration grids
   S Lehtola, MJT Oliveira, MAL Marques          : LibXC Library
   Liviu Ungur et al                             : ANISO software


 Your calculation uses the libint2 library for the computation of 2-el integrals
 For citations please refer to: http://libint.valeyev.net

 Your ORCA version has been built with support for libXC version: 5.1.0
 For citations please refer to: https://tddft.org/programs/libxc/

 This ORCA versions uses:
   CBLAS   interface :  Fast vector & matrix operations
   LAPACKE interface :  Fast linear algebra routines
   SCALAPACK package :  Parallel linear algebra routines
   Shared memory     :  Shared parallel matrices
   BLAS/LAPACK       :  OpenBLAS 0.3.15  USE64BITINT DYNAMIC_ARCH NO_AFFINITY Haswell SINGLE_THREADED
        Core in use  :  Haswell
   Copyright (c) 2011-2014, The OpenBLAS Project


SCAN-COORDS

Reading of a custom basis requested
Basis file         : Rb_ano-rcc-vqzp.basis
READING GTO-BASIS: RUBIDIUM
Basis successfully read

================================================================================

----- Orbital basis set information -----
================================================================================
                                        WARNINGS
                       Please study these warnings very carefully!
================================================================================


INFO   : the flag for use of the SHARK integral package has been found!

================================================================================
                                       INPUT FILE
================================================================================
NAME = Rb_ano-rcc-vqzp_pbe.inp
|  1> !uks pbe nori verytightscf soscf notrah defgrid3
|  2> 
|  3> %pal
|  4>   nprocs 32
|  5> end
|  6> %coords
|  7>   charge 0
|  8>   mult 2
|  9>   units bohrs
| 10>   coords
| 11>     Rb 0.0 0.0 0.0
| 12>   end
| 13> end
| 14> %basis
| 15>   gtoname "Rb_ano-rcc-vqzp.basis"
| 16>   delECP Rb
| 17> end
| 18> %rel
| 19>   method zora
| 20>   modelpot 1, 0, 0, 0
| 21>   c 137.035999084
| 22> endd                         ****END OF INPUT****
================================================================================

                       ****************************
                       * Single Point Calculation *
                       ****************************

---------------------------------
CARTESIAN COORDINATES (ANGSTROEM)
---------------------------------
  Rb     0.000000    0.000000    0.000000

----------------------------
CARTESIAN COORDINATES (A.U.)
----------------------------
  NO LB      ZA    FRAG     MASS         X           Y           Z
   0 Rb   37.0000    0    85.479    0.000000    0.000000    0.000000

--------------------------------
INTERNAL COORDINATES (ANGSTROEM)
--------------------------------
 Rb     0   0   0     0.000000000000     0.00000000     0.00000000

---------------------------
INTERNAL COORDINATES (A.U.)
---------------------------
 Rb     0   0   0     0.000000000000     0.00000000     0.00000000

---------------------
BASIS SET INFORMATION
---------------------
There are 1 groups of distinct atoms

 Group   1 Type Rb  : 184s133p44d8f1g contracted to 8s7p4d2f1g pattern {2323232323232323/19191919191919/11111111/44/1}

Atom   0Rb   basis set group =>   1


           ************************************************************
           *        Program running with 32 parallel MPI-processes    *
           *              working on a common directory               *
           ************************************************************
------------------------------------------------------------------------------
                           ORCA GTO INTEGRAL CALCULATION
------------------------------------------------------------------------------
------------------------------------------------------------------------------
                   ___                                                        
                  /   \      - P O W E R E D   B Y -                         
                 /     \                                                     
                 |  |  |   _    _      __       _____    __    __             
                 |  |  |  | |  | |    /  \     |  _  \  |  |  /  |          
                  \  \/   | |  | |   /    \    | | | |  |  | /  /          
                 / \  \   | |__| |  /  /\  \   | |_| |  |  |/  /          
                |  |  |   |  __  | /  /__\  \  |    /   |      \           
                |  |  |   | |  | | |   __   |  |    \   |  |\   \          
                \     /   | |  | | |  |  |  |  | |\  \  |  | \   \       
                 \___/    |_|  |_| |__|  |__|  |_| \__\ |__|  \__/        
                                                                              
                      - O R C A' S   B I G   F R I E N D -                    
                                      &                                       
                       - I N T E G R A L  F E E D E R -                       
                                                                              
 v1 FN, 2020, v2 2021                                                         
------------------------------------------------------------------------------


Reading SHARK input file Rb_ano-rcc-vqzp_pbe.SHARKINP.tmp ... ok
----------------------
SHARK INTEGRAL PACKAGE
----------------------

Number of atoms                             ...      1
Number of basis functions                   ...     72
Number of shells                            ...     22
Maximum angular momentum                    ...      4
Integral batch strategy                     ... SHARK/LIBINT Hybrid
RI-J (if used) integral strategy            ... SPLIT-RIJ (Revised 2003 algorithm where possible)
Printlevel                                  ...      1
Contraction scheme used                     ... SEGMENTED contraction
Coulomb Range Separation                    ... NOT USED
Exchange Range Separation                   ... NOT USED
Finite Nucleus Model                        ... NOT USED
Auxiliary Coulomb fitting basis             ... NOT available
Auxiliary J/K fitting basis                 ... NOT available
Auxiliary Correlation fitting basis         ... NOT available
Auxiliary 'external' fitting basis          ... NOT available
Integral threshold                          ...     1.000000e-12
Primitive cut-off                           ...     1.000000e-14
Primitive pair pre-selection threshold      ...     1.000000e-14

Calculating pre-screening integrals         ... done ( 16.7 sec) Dimension = 22
Organizing shell pair data                  ... done (  0.2 sec)
Shell pair information
Total number of shell pairs                 ...       253
Shell pairs after pre-screening             ...       253
Total number of primitive shell pairs       ...     72088
Primitive shell pairs kept                  ...     72083
          la=0 lb=0:     36 shell pairs
          la=1 lb=0:     56 shell pairs
          la=1 lb=1:     28 shell pairs
          la=2 lb=0:     32 shell pairs
          la=2 lb=1:     28 shell pairs
          la=2 lb=2:     10 shell pairs
          la=3 lb=0:     16 shell pairs
          la=3 lb=1:     14 shell pairs
          la=3 lb=2:      8 shell pairs
          la=3 lb=3:      3 shell pairs
          la=4 lb=0:      8 shell pairs
          la=4 lb=1:      7 shell pairs
          la=4 lb=2:      4 shell pairs
          la=4 lb=3:      2 shell pairs
          la=4 lb=4:      1 shell pairs

Calculating one electron integrals          ... done (  0.1 sec)
Calculating Nuclear repulsion               ... done (  0.0 sec) ENN=      0.000000000000 Eh

SHARK setup successfully completed in  17.3 seconds

Maximum memory used throughout the entire GTOINT-calculation: 370.8 MB


           ************************************************************
           *        Program running with 32 parallel MPI-processes    *
           *              working on a common directory               *
           ************************************************************
------------------------------------------------------------------------------
                          ORCA RELATIVISTIC HAMILTONIAN
------------------------------------------------------------------------------

Relativistic Method            ... ZORA(MP)
Treatment of potential         ... Van Wuellen
Nucleus model                  ... Point Nucleus
Speed of light used            ... 137.03599908400000


            *************************************************
            *         ZERO ORDER REGULAR APPROXIMATION      *
            *                     ZORA(MP)                  *
            *            Programmed by FN according to      *
            *                   C. van Wuellen              *
            *       J. Chem. Phys. (1998) vol 109, 392-399  *
            *************************************************

Terms included in model potential: +V(e,N)
Basis function cutoff value   ... 1.000000e-12
Loading the fitted atomic densities  (DKH4)  ... done
Calculating the cutoffs                      ... done
Number of fit functions                      ... 29
Setting up the integration grid ... done

Maximum memory used throughout the entire REL-calculation: 23.6 MB


           ************************************************************
           *        Program running with 32 parallel MPI-processes    *
           *              working on a common directory               *
           ************************************************************
-------------------------------------------------------------------------------
                                 ORCA SCF
-------------------------------------------------------------------------------

------------
SCF SETTINGS
------------
Hamiltonian:
 Density Functional     Method          .... DFT(GTOs)
 Exchange Functional    Exchange        .... PBE
   PBE kappa parameter   XKappa         ....  0.804000
   PBE mue parameter    XMuePBE         ....  0.219520
 Correlation Functional Correlation     .... PBE
   PBE beta parameter  CBetaPBE         ....  0.066725
 LDA part of GGA corr.  LDAOpt          .... PW91-LDA
 Gradients option       PostSCFGGA      .... off
   Density functional embedding theory  .... OFF
   NL short-range parameter             ....  6.400000

Relativistic Settings:
 Scalar relativistic method             .... ZORA
 Speed of light used       Velit        ....       137.035999
Orbital energies will be scaled


General Settings:
 Integral files         IntName         .... Rb_ano-rcc-vqzp_pbe
 Hartree-Fock type      HFTyp           .... UHF
 Total Charge           Charge          ....    0
 Multiplicity           Mult            ....    2
 Number of Electrons    NEL             ....   37
 Basis Dimension        Dim             ....   72
 Nuclear Repulsion      ENuc            ....      0.0000000000 Eh

Convergence Acceleration:
 DIIS                   CNVDIIS         .... on
   Start iteration      DIISMaxIt       ....    12
   Startup error        DIISStart       ....  0.200000
   # of expansion vecs  DIISMaxEq       ....     5
   Bias factor          DIISBfac        ....   1.050
   Max. coefficient     DIISMaxC        ....  10.000
 Trust-Rad. Augm. Hess. CNVTRAH         .... off
 SOSCF                  CNVSOSCF        .... on
   Start iteration      SOSCFMaxIt      ....   150
   Startup grad/error   SOSCFStart      ....  0.003300
 Level Shifting         CNVShift        .... on
   Level shift para.    LevelShift      ....    0.2500
   Turn off err/grad.   ShiftErr        ....    0.0010
 Zerner damping         CNVZerner       .... off
 Static damping         CNVDamp         .... on
   Fraction old density DampFac         ....    0.7000
   Max. Damping (<1)    DampMax         ....    0.9800
   Min. Damping (>=0)   DampMin         ....    0.0000
   Turn off err/grad.   DampErr         ....    0.1000
 Fernandez-Rico         CNVRico         .... off

SCF Procedure:
 Maximum # iterations   MaxIter         ....   125
 SCF integral mode      SCFMode         .... Direct
   Integral package                     .... SHARK and LIBINT hybrid scheme
 Reset frequency        DirectResetFreq ....    20
 Integral Threshold     Thresh          ....  1.000e-12 Eh
 Primitive CutOff       TCut            ....  1.000e-14 Eh

Convergence Tolerance:
 Convergence Check Mode ConvCheckMode   .... Total+1el-Energy
 Convergence forced     ConvForced      .... 0
 Energy Change          TolE            ....  1.000e-09 Eh
 1-El. energy change                    ....  1.000e-06 Eh
 Orbital Gradient       TolG            ....  2.000e-06
 Orbital Rotation angle TolX            ....  2.000e-06
 DIIS Error             TolErr          ....  1.000e-08


Diagonalization of the overlap matrix:
Smallest eigenvalue                        ... 1.000e+00
Time for diagonalization                   ...    0.037 sec
Threshold for overlap eigenvalues          ... 1.000e-08
Number of eigenvalues below threshold      ... 0
Time for construction of square roots      ...    0.074 sec
Total time needed                          ...    0.113 sec

Time for model grid setup =    0.196 sec

------------------------------
INITIAL GUESS: MODEL POTENTIAL
------------------------------
Loading ZORA relativistic densities                ... done
Calculating cut-offs                               ... done
Initializing the effective Hamiltonian             ... done
Setting up the integral package (SHARK)            ... done
Starting the Coulomb interaction                   ... done (   2.4 sec)
Reading the grid                                   ... done
Mapping shells                                     ... done
Starting the XC term evaluation                    ... done (   0.1 sec)
  promolecular density results
     # of electrons  =     37.000037192
     EX              =   -100.521093553
     EC              =     -1.798213707
     EX+EC           =   -102.319307260
Transforming the Hamiltonian                       ... done (   0.0 sec)
Diagonalizing the Hamiltonian                      ... done (   0.0 sec)
Back transforming the eigenvectors                 ... done (   0.0 sec)
Now organizing SCF variables                       ... done
                      ------------------
                      INITIAL GUESS DONE (   3.0 sec)
                      ------------------
-------------------
DFT GRID GENERATION
-------------------

General Integration Accuracy     IntAcc      ... 4.959
Radial Grid Type                 RadialGrid  ... OptM3 with GC (2021)
Angular Grid (max. ang.)         AngularGrid ... 6 (Lebedev-590)
Angular grid pruning method      GridPruning ... 4 (adaptive)
Weight generation scheme         WeightScheme... Becke
Basis function cutoff            BFCut       ... 1.0000e-12
Integration weight cutoff        WCut        ... 1.0000e-14
Angular grids for H and He will be reduced by one unit
Partially contracted basis set               ... off
Rotationally invariant grid construction     ... off

Total number of grid points                  ...    65888
Total number of batches                      ...     1030
Average number of points per batch           ...       63
Average number of grid points per atom       ...    65888
Time for grid setup =    4.193 sec

--------------
SCF ITERATIONS
--------------
ITER       Energy         Delta-E        Max-DP      RMS-DP      [F,P]     Damp
               ***  Starting incremental Fock matrix formation  ***
  0  -3007.7263150234   0.000000000000 0.00204610  0.00008842  0.0753027 0.7000
  1  -3007.7275623929  -0.001247369515 0.00197391  0.00005557  0.0505446 0.7000
                               ***Turning on DIIS***
  2  -3007.7282116638  -0.000649270811 0.00631121  0.00012176  0.0344850 0.0000
  3  -3007.7294166349  -0.001204971120 0.00157677  0.00005423  0.0086802 0.0000
                      *** Initiating the SOSCF procedure ***
                           *** Shutting down DIIS ***
                      *** Re-Reading the Fockian *** 
                      *** Removing any level shift *** 
ITER      Energy       Delta-E        Grad      Rot      Max-DP    RMS-DP
  4  -3007.72949902  -0.0000823836  0.000852  0.000852  0.001318  0.000020
               *** Restarting incremental Fock matrix formation ***
  5  -3007.72950986  -0.0000108379  0.000379  0.003429  0.002815  0.000034
  6  -3007.72951115  -0.0000012974  0.000054  0.000077  0.000103  0.000002
  7  -3007.72951117  -0.0000000207  0.000034  0.000050  0.000037  0.000001
  8  -3007.72951118  -0.0000000105  0.000006  0.000004  0.000003  0.000000
  9  -3007.72951119  -0.0000000001  0.000002  0.000001  0.000001  0.000000
                  ***Gradient check signals convergence***
              ***Rediagonalizing the Fockian in SOSCF/NRSCF***

               *****************************************************
               *                     SUCCESS                       *
               *           SCF CONVERGED AFTER  10 CYCLES          *
               *****************************************************


----------------
TOTAL SCF ENERGY
----------------

Total Energy       :        -3007.72951119 Eh          -81844.48089 eV

Components:
Nuclear Repulsion  :            0.00000000 Eh               0.00000 eV
Electronic Energy  :        -3007.72951119 Eh          -81844.48089 eV
One Electron Energy:        -4159.88892508 Eh         -113196.33244 eV
Two Electron Energy:         1152.15941390 Eh           31351.85155 eV

Virial components:
Potential Energy   :        -6135.62795640 Eh         -166958.92472 eV
Kinetic Energy     :         3127.89844521 Eh           85114.44383 eV
Virial Ratio       :            1.96158157


DFT components:
N(Alpha)           :       18.999999927144 electrons
N(Beta)            :       17.999999956032 electrons
N(Total)           :       36.999999883176 electrons
E(X)               :      -99.482961645883 Eh       
E(C)               :       -1.795665543571 Eh       
E(XC)              :     -101.278627189454 Eh       
DFET-embed. en.    :        0.000000000000 Eh       

---------------
SCF CONVERGENCE
---------------

  Last Energy change         ...   -3.1378e-11  Tolerance :   1.0000e-09
  Last MAX-Density change    ...    6.0764e-08  Tolerance :   1.0000e-08
  Last RMS-Density change    ...    9.9807e-10  Tolerance :   1.0000e-09
  Last Orbital Gradient      ...    4.9393e-08  Tolerance :   2.0000e-06
  Last Orbital Rotation      ...    6.3622e-08  Tolerance :   2.0000e-06

             **** THE GBW FILE WAS UPDATED (Rb_ano-rcc-vqzp_pbe.gbw) ****
             **** DENSITY Rb_ano-rcc-vqzp_pbe.scfp WAS UPDATED ****
             **** ENERGY FILE WAS UPDATED (Rb_ano-rcc-vqzp_pbe.en.tmp) ****
----------------------
UHF SPIN CONTAMINATION
----------------------

Warning: in a DFT calculation there is little theoretical justification to 
         calculate <S**2> as in Hartree-Fock theory. We will do it anyways
         but you should keep in mind that the values have only limited relevance

Expectation value of <S**2>     :     0.750126
Ideal value S*(S+1) for S=0.5   :     0.750000
Deviation                       :     0.000126

             **** THE GBW FILE WAS UPDATED (Rb_ano-rcc-vqzp_pbe.gbw) ****
             **** DENSITY Rb_ano-rcc-vqzp_pbe.scfp WAS UPDATED ****
----------------
ORBITAL ENERGIES
----------------
                 SPIN UP ORBITALS
  NO   OCC          E(Eh)            E(eV) 
   0   1.0000    -562.182440    -15297.7619 
   1   1.0000     -74.183215     -2018.6279 
   2   1.0000     -65.982606     -1795.4780 
   3   1.0000     -65.982606     -1795.4780 
   4   1.0000     -65.982606     -1795.4780 
   5   1.0000     -10.977275      -298.7068 
   6   1.0000      -8.314066      -226.2372 
   7   1.0000      -8.314066      -226.2372 
   8   1.0000      -8.314066      -226.2372 
   9   1.0000      -3.842968      -104.5725 
  10   1.0000      -3.842968      -104.5725 
  11   1.0000      -3.842968      -104.5725 
  12   1.0000      -3.842968      -104.5725 
  13   1.0000      -3.842968      -104.5725 
  14   1.0000      -1.170816       -31.8595 
  15   1.0000      -0.588551       -16.0153 
  16   1.0000      -0.588551       -16.0153 
  17   1.0000      -0.588551       -16.0153 
  18   1.0000      -0.089435        -2.4336 
  19   0.0000      -0.032729        -0.8906 
  20   0.0000      -0.032729        -0.8906 
  21   0.0000      -0.032729        -0.8906 
  22   0.0000       0.021053         0.5729 
  23   0.0000       0.052028         1.4158 
  24   0.0000       0.052028         1.4158 
  25   0.0000       0.052028         1.4158 
  26   0.0000       0.081065         2.2059 
  27   0.0000       0.081065         2.2059 
  28   0.0000       0.081065         2.2059 
  29   0.0000       0.081065         2.2059 
  30   0.0000       0.081065         2.2059 
  31   0.0000       0.628701        17.1078 
  32   0.0000       0.628701        17.1078 
  33   0.0000       0.628701        17.1078 
  34   0.0000       0.632317        17.2062 
  35   0.0000       0.686833        18.6897 
  36   0.0000       0.686833        18.6897 
  37   0.0000       0.686833        18.6897 
  38   0.0000       0.686833        18.6897 
  39   0.0000       0.686833        18.6897 
  40   0.0000       0.902631        24.5618 
  41   0.0000       0.902631        24.5618 
  42   0.0000       0.902631        24.5618 
  43   0.0000       0.902631        24.5618 
  44   0.0000       0.902631        24.5618 
  45   0.0000       0.902631        24.5618 
  46   0.0000       0.902631        24.5618 
  47   0.0000       2.536315        69.0167 
  48   0.0000       2.536315        69.0167 
  49   0.0000       2.536315        69.0167 
  50   0.0000       2.536315        69.0167 
  51   0.0000       2.536315        69.0167 
  52   0.0000       2.536315        69.0167 
  53   0.0000       2.536315        69.0167 
  54   0.0000       2.563505        69.7565 
  55   0.0000       2.563505        69.7565 
  56   0.0000       2.563505        69.7565 
  57   0.0000       2.563505        69.7565 
  58   0.0000       2.563505        69.7565 
  59   0.0000       2.931556        79.7717 
  60   0.0000       2.931556        79.7717 
  61   0.0000       2.931556        79.7717 
  62   0.0000       3.045692        82.8775 
  63   0.0000       4.283765       116.5672 
  64   0.0000       4.283765       116.5672 
  65   0.0000       4.283765       116.5672 
  66   0.0000       4.283765       116.5672 
  67   0.0000       4.283765       116.5672 
  68   0.0000       4.283765       116.5672 
  69   0.0000       4.283765       116.5672 
  70   0.0000       4.283765       116.5672 
  71   0.0000       4.283765       116.5672 

                 SPIN DOWN ORBITALS
  NO   OCC          E(Eh)            E(eV) 
   0   1.0000    -562.182221    -15297.7560 
   1   1.0000     -74.183052     -2018.6235 
   2   1.0000     -65.982460     -1795.4740 
   3   1.0000     -65.982460     -1795.4740 
   4   1.0000     -65.982460     -1795.4740 
   5   1.0000     -10.976983      -298.6989 
   6   1.0000      -8.313755      -226.2288 
   7   1.0000      -8.313755      -226.2288 
   8   1.0000      -8.313755      -226.2288 
   9   1.0000      -3.842609      -104.5627 
  10   1.0000      -3.842609      -104.5627 
  11   1.0000      -3.842609      -104.5627 
  12   1.0000      -3.842609      -104.5627 
  13   1.0000      -3.842609      -104.5627 
  14   1.0000      -1.169053       -31.8116 
  15   1.0000      -0.585262       -15.9258 
  16   1.0000      -0.585262       -15.9258 
  17   1.0000      -0.585262       -15.9258 
  18   0.0000      -0.057218        -1.5570 
  19   0.0000       0.008258         0.2247 
  20   0.0000       0.008258         0.2247 
  21   0.0000       0.008258         0.2247 
  22   0.0000       0.055434         1.5084 
  23   0.0000       0.077283         2.1030 
  24   0.0000       0.077283         2.1030 
  25   0.0000       0.077283         2.1030 
  26   0.0000       0.092269         2.5108 
  27   0.0000       0.092269         2.5108 
  28   0.0000       0.092269         2.5108 
  29   0.0000       0.092269         2.5108 
  30   0.0000       0.092269         2.5108 
  31   0.0000       0.647388        17.6163 
  32   0.0000       0.647388        17.6163 
  33   0.0000       0.647388        17.6163 
  34   0.0000       0.650622        17.7043 
  35   0.0000       0.695015        18.9123 
  36   0.0000       0.695015        18.9123 
  37   0.0000       0.695015        18.9123 
  38   0.0000       0.695015        18.9123 
  39   0.0000       0.695015        18.9123 
  40   0.0000       0.911520        24.8037 
  41   0.0000       0.911520        24.8037 
  42   0.0000       0.911520        24.8037 
  43   0.0000       0.911520        24.8037 
  44   0.0000       0.911520        24.8037 
  45   0.0000       0.911520        24.8037 
  46   0.0000       0.911520        24.8037 
  47   0.0000       2.540382        69.1273 
  48   0.0000       2.540382        69.1273 
  49   0.0000       2.540382        69.1273 
  50   0.0000       2.540382        69.1273 
  51   0.0000       2.540382        69.1273 
  52   0.0000       2.540382        69.1273 
  53   0.0000       2.540382        69.1273 
  54   0.0000       2.570073        69.9352 
  55   0.0000       2.570073        69.9352 
  56   0.0000       2.570073        69.9352 
  57   0.0000       2.570073        69.9352 
  58   0.0000       2.570073        69.9352 
  59   0.0000       2.938238        79.9535 
  60   0.0000       2.938238        79.9535 
  61   0.0000       2.938238        79.9535 
  62   0.0000       3.054546        83.1184 
  63   0.0000       4.284209       116.5792 
  64   0.0000       4.284209       116.5792 
  65   0.0000       4.284209       116.5792 
  66   0.0000       4.284209       116.5792 
  67   0.0000       4.284209       116.5792 
  68   0.0000       4.284209       116.5792 
  69   0.0000       4.284209       116.5792 
  70   0.0000       4.284209       116.5792 
  71   0.0000       4.284209       116.5792 

                    ********************************
                    * MULLIKEN POPULATION ANALYSIS *
                    ********************************

--------------------------------------------
MULLIKEN ATOMIC CHARGES AND SPIN POPULATIONS
--------------------------------------------
   0 Rb:    0.000000    1.000000
Sum of atomic charges         :    0.0000000
Sum of atomic spin populations:    1.0000000

-----------------------------------------------------
MULLIKEN REDUCED ORBITAL CHARGES AND SPIN POPULATIONS
-----------------------------------------------------
CHARGE
  0 Rbs       :     9.000000  s :     9.000000
      pz      :     6.000000  p :    18.000000
      px      :     6.000000
      py      :     6.000000
      dz2     :     2.000000  d :    10.000000
      dxz     :     2.000000
      dyz     :     2.000000
      dx2y2   :     2.000000
      dxy     :     2.000000
      f0      :     0.000000  f :     0.000000
      f+1     :     0.000000
      f-1     :     0.000000
      f+2     :     0.000000
      f-2     :     0.000000
      f+3     :     0.000000
      f-3     :     0.000000
      g0      :     0.000000  g :     0.000000
      g+1     :     0.000000
      g-1     :     0.000000
      g+2     :     0.000000
      g-2     :     0.000000
      g+3     :     0.000000
      g-3     :     0.000000
      g+4     :     0.000000
      g-4     :     0.000000

SPIN
  0 Rbs       :     1.000000  s :     1.000000
      pz      :    -0.000000  p :    -0.000000
      px      :     0.000000
      py      :    -0.000000
      dz2     :    -0.000000  d :    -0.000000
      dxz     :    -0.000000
      dyz     :     0.000000
      dx2y2   :     0.000000
      dxy     :    -0.000000
      f0      :     0.000000  f :     0.000000
      f+1     :    -0.000000
      f-1     :    -0.000000
      f+2     :     0.000000
      f-2     :     0.000000
      f+3     :    -0.000000
      f-3     :    -0.000000
      g0      :     0.000000  g :    -0.000000
      g+1     :    -0.000000
      g-1     :    -0.000000
      g+2     :     0.000000
      g-2     :    -0.000000
      g+3     :    -0.000000
      g-3     :    -0.000000
      g+4     :    -0.000000
      g-4     :    -0.000000


                     *******************************
                     * LOEWDIN POPULATION ANALYSIS *
                     *******************************

-------------------------------------------
LOEWDIN ATOMIC CHARGES AND SPIN POPULATIONS
-------------------------------------------
   0 Rb:   -0.000000    1.000000

----------------------------------------------------
LOEWDIN REDUCED ORBITAL CHARGES AND SPIN POPULATIONS
----------------------------------------------------
CHARGE
  0 Rbs       :     9.000000  s :     9.000000
      pz      :     6.000000  p :    18.000000
      px      :     6.000000
      py      :     6.000000
      dz2     :     2.000000  d :    10.000000
      dxz     :     2.000000
      dyz     :     2.000000
      dx2y2   :     2.000000
      dxy     :     2.000000
      f0      :     0.000000  f :     0.000000
      f+1     :     0.000000
      f-1     :     0.000000
      f+2     :     0.000000
      f-2     :     0.000000
      f+3     :     0.000000
      f-3     :     0.000000
      g0      :     0.000000  g :     0.000000
      g+1     :     0.000000
      g-1     :     0.000000
      g+2     :     0.000000
      g-2     :     0.000000
      g+3     :     0.000000
      g-3     :     0.000000
      g+4     :     0.000000
      g-4     :     0.000000

SPIN
  0 Rbs       :     1.000000  s :     1.000000
      pz      :    -0.000000  p :    -0.000000
      px      :     0.000000
      py      :    -0.000000
      dz2     :    -0.000000  d :    -0.000000
      dxz     :    -0.000000
      dyz     :     0.000000
      dx2y2   :     0.000000
      dxy     :    -0.000000
      f0      :     0.000000  f :     0.000000
      f+1     :    -0.000000
      f-1     :    -0.000000
      f+2     :     0.000000
      f-2     :     0.000000
      f+3     :    -0.000000
      f-3     :    -0.000000
      g0      :     0.000000  g :    -0.000000
      g+1     :    -0.000000
      g-1     :    -0.000000
      g+2     :     0.000000
      g-2     :    -0.000000
      g+3     :    -0.000000
      g-3     :    -0.000000
      g+4     :    -0.000000
      g-4     :    -0.000000


                      *****************************
                      * MAYER POPULATION ANALYSIS *
                      *****************************

  NA   - Mulliken gross atomic population
  ZA   - Total nuclear charge
  QA   - Mulliken gross atomic charge
  VA   - Mayer's total valence
  BVA  - Mayer's bonded valence
  FA   - Mayer's free valence

  ATOM       NA         ZA         QA         VA         BVA        FA
  0 Rb    37.0000    37.0000    -0.0000     1.0003     0.0000     1.0003

  Mayer bond orders larger than 0.100000


-------
TIMINGS
-------

Total SCF time: 0 days 0 hours 4 min 53 sec 

Total time                  ....     293.921 sec
Sum of individual times     ....     290.514 sec  ( 98.8%)

Fock matrix formation       ....     282.931 sec  ( 96.3%)
  XC integration            ....       3.915 sec  (  1.4% of F)
    Basis function eval.    ....       0.163 sec  (  4.2% of XC)
    Density eval.           ....       0.174 sec  (  4.5% of XC)
    XC-Functional eval.     ....       0.039 sec  (  1.0% of XC)
    XC-Potential eval.      ....       0.056 sec  (  1.4% of XC)
Diagonalization             ....       0.097 sec  (  0.0%)
Density matrix formation    ....       0.005 sec  (  0.0%)
Population analysis         ....       0.061 sec  (  0.0%)
Initial guess               ....       2.809 sec  (  1.0%)
Orbital Transformation      ....       0.000 sec  (  0.0%)
Orbital Orthonormalization  ....       0.000 sec  (  0.0%)
DIIS solution               ....       0.159 sec  (  0.1%)
SOSCF solution              ....       0.063 sec  (  0.0%)
Grid generation             ....       4.389 sec  (  1.5%)

Maximum memory used throughout the entire SCF-calculation: 252.3 MB

-------------------------   --------------------
FINAL SINGLE POINT ENERGY     -3007.729511185082
-------------------------   --------------------


                            ***************************************
                            *     ORCA property calculations      *
                            ***************************************

                                    ---------------------
                                    Active property flags
                                    ---------------------
   (+) Dipole Moment


------------------------------------------------------------------------------
                       ORCA ELECTRIC PROPERTIES CALCULATION
------------------------------------------------------------------------------

Dipole Moment Calculation                       ... on
Quadrupole Moment Calculation                   ... off
Polarizability Calculation                      ... off
GBWName                                         ... Rb_ano-rcc-vqzp_pbe.gbw
Electron density                                ... Rb_ano-rcc-vqzp_pbe.scfp
The origin for moment calculation is the CENTER OF MASS  = ( 0.000000,  0.000000  0.000000)

-------------
DIPOLE MOMENT
-------------
                                X             Y             Z
Electronic contribution:      0.00000      -0.00000       0.00000
Nuclear contribution   :      0.00000       0.00000       0.00000
                        -----------------------------------------
Total Dipole Moment    :      0.00000      -0.00000       0.00000
                        -----------------------------------------
Magnitude (a.u.)       :      0.00000
Magnitude (Debye)      :      0.00000



--------------------
Rotational spectrum 
--------------------
 
Rotational constants in cm-1:     0.000000     0.000000     0.000000 
Rotational constants in MHz :     0.000000     0.000000     0.000000 

 Dipole components along the rotational axes: 
x,y,z [a.u.] :     0.000000    -0.000000     0.000000 
x,y,z [Debye]:     0.000000    -0.000000     0.000000 

 

Timings for individual modules:

Sum of individual times         ...      325.325 sec (=   5.422 min)
GTO integral calculation        ...       21.774 sec (=   0.363 min)   6.7 %
Relativistic integrals          ...        6.996 sec (=   0.117 min)   2.2 %
SCF iterations                  ...      296.556 sec (=   4.943 min)  91.2 %
                             ****ORCA TERMINATED NORMALLY****
TOTAL RUN TIME: 0 days 0 hours 5 minutes 34 seconds 428 msec
