
                                 *****************
                                 * O   R   C   A *
                                 *****************

                                            #,                                       
                                            ###                                      
                                            ####                                     
                                            #####                                    
                                            ######                                   
                                           ########,                                 
                                     ,,################,,,,,                         
                               ,,#################################,,                 
                          ,,##########################################,,             
                       ,#########################################, ''#####,          
                    ,#############################################,,   '####,        
                  ,##################################################,,,,####,       
                ,###########''''           ''''###############################       
              ,#####''   ,,,,##########,,,,          '''####'''          '####       
            ,##' ,,,,###########################,,,                        '##       
           ' ,,###''''                  '''############,,,                           
         ,,##''                                '''############,,,,        ,,,,,,###''
      ,#''                                            '''#######################'''  
     '                                                          ''''####''''         
             ,#######,   #######,   ,#######,      ##                                
            ,#'     '#,  ##    ##  ,#'     '#,    #''#        ######   ,####,        
            ##       ##  ##   ,#'  ##            #'  '#       #        #'  '#        
            ##       ##  #######   ##           ,######,      #####,   #    #        
            '#,     ,#'  ##    ##  '#,     ,#' ,#      #,         ##   #,  ,#        
             '#######'   ##     ##  '#######'  #'      '#     #####' # '####'        



                  #######################################################
                  #                        -***-                        #
                  #          Department of theory and spectroscopy      #
                  #    Directorship and core code : Frank Neese         #
                  #        Max Planck Institute fuer Kohlenforschung    #
                  #                Kaiser Wilhelm Platz 1               #
                  #                 D-45470 Muelheim/Ruhr               #
                  #                      Germany                        #
                  #                                                     #
                  #                  All rights reserved                #
                  #                        -***-                        #
                  #######################################################


                         Program Version 5.0.1 -  RELEASE  -


 With contributions from (in alphabetic order):
   Daniel Aravena         : Magnetic Suceptibility
   Michael Atanasov       : Ab Initio Ligand Field Theory (pilot matlab implementation)
   Alexander A. Auer      : GIAO ZORA, VPT2 properties, NMR spectrum
   Ute Becker             : Parallelization
   Giovanni Bistoni       : ED, misc. LED, open-shell LED, HFLD
   Martin Brehm           : Molecular dynamics
   Dmytro Bykov           : SCF Hessian
   Vijay G. Chilkuri      : MRCI spin determinant printing, contributions to CSF-ICE
   Dipayan Datta          : RHF DLPNO-CCSD density
   Achintya Kumar Dutta   : EOM-CC, STEOM-CC
   Dmitry Ganyushin       : Spin-Orbit,Spin-Spin,Magnetic field MRCI
   Miquel Garcia          : C-PCM and meta-GGA Hessian, CC/C-PCM, Gaussian charge scheme
   Yang Guo               : DLPNO-NEVPT2, F12-NEVPT2, CIM, IAO-localization
   Andreas Hansen         : Spin unrestricted coupled pair/coupled cluster methods
   Benjamin Helmich-Paris : MC-RPA, TRAH-SCF, COSX integrals
   Lee Huntington         : MR-EOM, pCC
   Robert Izsak           : Overlap fitted RIJCOSX, COSX-SCS-MP3, EOM
   Marcus Kettner         : VPT2
   Christian Kollmar      : KDIIS, OOCD, Brueckner-CCSD(T), CCSD density, CASPT2, CASPT2-K
   Simone Kossmann        : Meta GGA functionals, TD-DFT gradient, OOMP2, MP2 Hessian
   Martin Krupicka        : Initial AUTO-CI
   Lucas Lang             : DCDCAS
   Marvin Lechner         : AUTO-CI (C++ implementation), FIC-MRCC
   Dagmar Lenk            : GEPOL surface, SMD
   Dimitrios Liakos       : Extrapolation schemes; Compound Job, initial MDCI parallelization
   Dimitrios Manganas     : Further ROCIS development; embedding schemes
   Dimitrios Pantazis     : SARC Basis sets
   Anastasios Papadopoulos: AUTO-CI, single reference methods and gradients
   Taras Petrenko         : DFT Hessian,TD-DFT gradient, ASA, ECA, R-Raman, ABS, FL, XAS/XES, NRVS
   Peter Pinski           : DLPNO-MP2, DLPNO-MP2 Gradient
   Christoph Reimann      : Effective Core Potentials
   Marius Retegan         : Local ZFS, SOC
   Christoph Riplinger    : Optimizer, TS searches, QM/MM, DLPNO-CCSD(T), (RO)-DLPNO pert. Triples
   Tobias Risthaus        : Range-separated hybrids, TD-DFT gradient, RPA, STAB
   Michael Roemelt        : Original ROCIS implementation
   Masaaki Saitow         : Open-shell DLPNO-CCSD energy and density
   Barbara Sandhoefer     : DKH picture change effects
   Avijit Sen             : IP-ROCIS
   Kantharuban Sivalingam : CASSCF convergence, NEVPT2, FIC-MRCI
   Bernardo de Souza      : ESD, SOC TD-DFT
   Georgi Stoychev        : AutoAux, RI-MP2 NMR, DLPNO-MP2 response
   Willem Van den Heuvel  : Paramagnetic NMR
   Boris Wezisla          : Elementary symmetry handling
   Frank Wennmohs         : Technical directorship


 We gratefully acknowledge several colleagues who have allowed us to
 interface, adapt or use parts of their codes:
   Stefan Grimme, W. Hujo, H. Kruse, P. Pracht,  : VdW corrections, initial TS optimization,
                  C. Bannwarth, S. Ehlert          DFT functionals, gCP, sTDA/sTD-DF
   Ed Valeev, F. Pavosevic, A. Kumar             : LibInt (2-el integral package), F12 methods
   Garnet Chan, S. Sharma, J. Yang, R. Olivares  : DMRG
   Ulf Ekstrom                                   : XCFun DFT Library
   Mihaly Kallay                                 : mrcc  (arbitrary order and MRCC methods)
   Jiri Pittner, Ondrej Demel                    : Mk-CCSD
   Frank Weinhold                                : gennbo (NPA and NBO analysis)
   Christopher J. Cramer and Donald G. Truhlar   : smd solvation model
   Lars Goerigk                                  : TD-DFT with DH, B97 family of functionals
   V. Asgeirsson, H. Jonsson                     : NEB implementation
   FAccTs GmbH                                   : IRC, NEB, NEB-TS, DLPNO-Multilevel, CI-OPT
                                                   MM, QMMM, 2- and 3-layer-ONIOM, Crystal-QMMM,
                                                   LR-CPCM, SF, NACMEs, symmetry and pop. for TD-DFT,
                                                   nearIR, NL-DFT gradient (VV10), updates on ESD,
                                                   ML-optimized integration grids
   S Lehtola, MJT Oliveira, MAL Marques          : LibXC Library
   Liviu Ungur et al                             : ANISO software


 Your calculation uses the libint2 library for the computation of 2-el integrals
 For citations please refer to: http://libint.valeyev.net

 Your ORCA version has been built with support for libXC version: 5.1.0
 For citations please refer to: https://tddft.org/programs/libxc/

 This ORCA versions uses:
   CBLAS   interface :  Fast vector & matrix operations
   LAPACKE interface :  Fast linear algebra routines
   SCALAPACK package :  Parallel linear algebra routines
   Shared memory     :  Shared parallel matrices
   BLAS/LAPACK       :  OpenBLAS 0.3.15  USE64BITINT DYNAMIC_ARCH NO_AFFINITY Haswell SINGLE_THREADED
        Core in use  :  Haswell
   Copyright (c) 2011-2014, The OpenBLAS Project


SCAN-COORDS

Reading of a custom basis requested
Basis file         : Rb_ugbs.basis
READING GTO-BASIS: RUBIDIUM
Basis successfully read

================================================================================

----- Orbital basis set information -----
================================================================================
                                        WARNINGS
                       Please study these warnings very carefully!
================================================================================


INFO   : the flag for use of the SHARK integral package has been found!

================================================================================
                                       INPUT FILE
================================================================================
NAME = Rb_ugbs_pbe.inp
|  1> !uks pbe nori verytightscf soscf notrah defgrid3
|  2> 
|  3> %pal
|  4>   nprocs 32
|  5> end
|  6> %coords
|  7>   charge 0
|  8>   mult 2
|  9>   units bohrs
| 10>   coords
| 11>     Rb 0.0 0.0 0.0
| 12>   end
| 13> end
| 14> %basis
| 15>   gtoname "Rb_ugbs.basis"
| 16>   delECP Rb
| 17> end
| 18> %rel
| 19>   method zora
| 20>   modelpot 1, 0, 0, 0
| 21>   c 137.035999084
| 22> endd                         ****END OF INPUT****
================================================================================

                       ****************************
                       * Single Point Calculation *
                       ****************************

---------------------------------
CARTESIAN COORDINATES (ANGSTROEM)
---------------------------------
  Rb     0.000000    0.000000    0.000000

----------------------------
CARTESIAN COORDINATES (A.U.)
----------------------------
  NO LB      ZA    FRAG     MASS         X           Y           Z
   0 Rb   37.0000    0    85.479    0.000000    0.000000    0.000000

--------------------------------
INTERNAL COORDINATES (ANGSTROEM)
--------------------------------
 Rb     0   0   0     0.000000000000     0.00000000     0.00000000

---------------------------
INTERNAL COORDINATES (A.U.)
---------------------------
 Rb     0   0   0     0.000000000000     0.00000000     0.00000000

---------------------
BASIS SET INFORMATION
---------------------
There are 1 groups of distinct atoms

 Group   1 Type Rb  : 30s20p14d contracted to 30s20p14d pattern {111111111111111111111111111111/11111111111111111111/11111111111111}

Atom   0Rb   basis set group =>   1


           ************************************************************
           *        Program running with 32 parallel MPI-processes    *
           *              working on a common directory               *
           ************************************************************
------------------------------------------------------------------------------
                           ORCA GTO INTEGRAL CALCULATION
------------------------------------------------------------------------------
------------------------------------------------------------------------------
                   ___                                                        
                  /   \      - P O W E R E D   B Y -                         
                 /     \                                                     
                 |  |  |   _    _      __       _____    __    __             
                 |  |  |  | |  | |    /  \     |  _  \  |  |  /  |          
                  \  \/   | |  | |   /    \    | | | |  |  | /  /          
                 / \  \   | |__| |  /  /\  \   | |_| |  |  |/  /          
                |  |  |   |  __  | /  /__\  \  |    /   |      \           
                |  |  |   | |  | | |   __   |  |    \   |  |\   \          
                \     /   | |  | | |  |  |  |  | |\  \  |  | \   \       
                 \___/    |_|  |_| |__|  |__|  |_| \__\ |__|  \__/        
                                                                              
                      - O R C A' S   B I G   F R I E N D -                    
                                      &                                       
                       - I N T E G R A L  F E E D E R -                       
                                                                              
 v1 FN, 2020, v2 2021                                                         
------------------------------------------------------------------------------


Reading SHARK input file Rb_ugbs_pbe.SHARKINP.tmp ... ok
----------------------
SHARK INTEGRAL PACKAGE
----------------------

Number of atoms                             ...      1
Number of basis functions                   ...    160
Number of shells                            ...     64
Maximum angular momentum                    ...      2
Integral batch strategy                     ... SHARK/LIBINT Hybrid
RI-J (if used) integral strategy            ... SPLIT-RIJ (Revised 2003 algorithm where possible)
Printlevel                                  ...      1
Contraction scheme used                     ... SEGMENTED contraction
Coulomb Range Separation                    ... NOT USED
Exchange Range Separation                   ... NOT USED
Finite Nucleus Model                        ... NOT USED
Auxiliary Coulomb fitting basis             ... NOT available
Auxiliary J/K fitting basis                 ... NOT available
Auxiliary Correlation fitting basis         ... NOT available
Auxiliary 'external' fitting basis          ... NOT available
Integral threshold                          ...     1.000000e-12
Primitive cut-off                           ...     1.000000e-14
Primitive pair pre-selection threshold      ...     1.000000e-14

Calculating pre-screening integrals         ... done (  0.2 sec) Dimension = 64
Organizing shell pair data                  ... done (  0.1 sec)
Shell pair information
Total number of shell pairs                 ...      2080
Shell pairs after pre-screening             ...      2080
Total number of primitive shell pairs       ...      2080
Primitive shell pairs kept                  ...      2080
          la=0 lb=0:    465 shell pairs
          la=1 lb=0:    600 shell pairs
          la=1 lb=1:    210 shell pairs
          la=2 lb=0:    420 shell pairs
          la=2 lb=1:    280 shell pairs
          la=2 lb=2:    105 shell pairs

Calculating one electron integrals          ... done (  0.0 sec)
Calculating Nuclear repulsion               ... done (  0.0 sec) ENN=      0.000000000000 Eh

SHARK setup successfully completed in   0.5 seconds

Maximum memory used throughout the entire GTOINT-calculation: 6.0 MB


           ************************************************************
           *        Program running with 32 parallel MPI-processes    *
           *              working on a common directory               *
           ************************************************************
------------------------------------------------------------------------------
                          ORCA RELATIVISTIC HAMILTONIAN
------------------------------------------------------------------------------

Relativistic Method            ... ZORA(MP)
Treatment of potential         ... Van Wuellen
Nucleus model                  ... Point Nucleus
Speed of light used            ... 137.03599908400000


            *************************************************
            *         ZERO ORDER REGULAR APPROXIMATION      *
            *                     ZORA(MP)                  *
            *            Programmed by FN according to      *
            *                   C. van Wuellen              *
            *       J. Chem. Phys. (1998) vol 109, 392-399  *
            *************************************************

Terms included in model potential: +V(e,N)
Basis function cutoff value   ... 1.000000e-12
Loading the fitted atomic densities  (DKH4)  ... done
Calculating the cutoffs                      ... done
Number of fit functions                      ... 29
Setting up the integration grid ... done

Maximum memory used throughout the entire REL-calculation: 23.8 MB


           ************************************************************
           *        Program running with 32 parallel MPI-processes    *
           *              working on a common directory               *
           ************************************************************
-------------------------------------------------------------------------------
                                 ORCA SCF
-------------------------------------------------------------------------------

------------
SCF SETTINGS
------------
Hamiltonian:
 Density Functional     Method          .... DFT(GTOs)
 Exchange Functional    Exchange        .... PBE
   PBE kappa parameter   XKappa         ....  0.804000
   PBE mue parameter    XMuePBE         ....  0.219520
 Correlation Functional Correlation     .... PBE
   PBE beta parameter  CBetaPBE         ....  0.066725
 LDA part of GGA corr.  LDAOpt          .... PW91-LDA
 Gradients option       PostSCFGGA      .... off
   Density functional embedding theory  .... OFF
   NL short-range parameter             ....  6.400000

Relativistic Settings:
 Scalar relativistic method             .... ZORA
 Speed of light used       Velit        ....       137.035999
Orbital energies will be scaled


General Settings:
 Integral files         IntName         .... Rb_ugbs_pbe
 Hartree-Fock type      HFTyp           .... UHF
 Total Charge           Charge          ....    0
 Multiplicity           Mult            ....    2
 Number of Electrons    NEL             ....   37
 Basis Dimension        Dim             ....  160
 Nuclear Repulsion      ENuc            ....      0.0000000000 Eh

Convergence Acceleration:
 DIIS                   CNVDIIS         .... on
   Start iteration      DIISMaxIt       ....    12
   Startup error        DIISStart       ....  0.200000
   # of expansion vecs  DIISMaxEq       ....     5
   Bias factor          DIISBfac        ....   1.050
   Max. coefficient     DIISMaxC        ....  10.000
 Trust-Rad. Augm. Hess. CNVTRAH         .... off
 SOSCF                  CNVSOSCF        .... on
   Start iteration      SOSCFMaxIt      ....   150
   Startup grad/error   SOSCFStart      ....  0.003300
 Level Shifting         CNVShift        .... on
   Level shift para.    LevelShift      ....    0.2500
   Turn off err/grad.   ShiftErr        ....    0.0010
 Zerner damping         CNVZerner       .... off
 Static damping         CNVDamp         .... on
   Fraction old density DampFac         ....    0.7000
   Max. Damping (<1)    DampMax         ....    0.9800
   Min. Damping (>=0)   DampMin         ....    0.0000
   Turn off err/grad.   DampErr         ....    0.1000
 Fernandez-Rico         CNVRico         .... off

SCF Procedure:
 Maximum # iterations   MaxIter         ....   125
 SCF integral mode      SCFMode         .... Direct
   Integral package                     .... SHARK and LIBINT hybrid scheme
 Reset frequency        DirectResetFreq ....    20
 Integral Threshold     Thresh          ....  1.000e-12 Eh
 Primitive CutOff       TCut            ....  1.000e-14 Eh

Convergence Tolerance:
 Convergence Check Mode ConvCheckMode   .... Total+1el-Energy
 Convergence forced     ConvForced      .... 0
 Energy Change          TolE            ....  1.000e-09 Eh
 1-El. energy change                    ....  1.000e-06 Eh
 Orbital Gradient       TolG            ....  2.000e-06
 Orbital Rotation angle TolX            ....  2.000e-06
 DIIS Error             TolErr          ....  1.000e-08


Diagonalization of the overlap matrix:
Smallest eigenvalue                        ... 6.125e-05
Time for diagonalization                   ...    0.005 sec
Threshold for overlap eigenvalues          ... 1.000e-08
Number of eigenvalues below threshold      ... 0
Time for construction of square roots      ...    0.031 sec
Total time needed                          ...    0.037 sec

Time for model grid setup =    0.187 sec

------------------------------
INITIAL GUESS: MODEL POTENTIAL
------------------------------
Loading ZORA relativistic densities                ... done
Calculating cut-offs                               ... done
Initializing the effective Hamiltonian             ... done
Setting up the integral package (SHARK)            ... done
Starting the Coulomb interaction                   ... done (   0.2 sec)
Reading the grid                                   ... done
Mapping shells                                     ... done
Starting the XC term evaluation                    ... done (   0.1 sec)
  promolecular density results
     # of electrons  =     37.000037192
     EX              =   -100.521093553
     EC              =     -1.798213707
     EX+EC           =   -102.319307260
Transforming the Hamiltonian                       ... done (   0.0 sec)
Diagonalizing the Hamiltonian                      ... done (   0.0 sec)
Back transforming the eigenvectors                 ... done (   0.0 sec)
Now organizing SCF variables                       ... done
                      ------------------
                      INITIAL GUESS DONE (   0.4 sec)
                      ------------------
-------------------
DFT GRID GENERATION
-------------------

General Integration Accuracy     IntAcc      ... 4.959
Radial Grid Type                 RadialGrid  ... OptM3 with GC (2021)
Angular Grid (max. ang.)         AngularGrid ... 6 (Lebedev-590)
Angular grid pruning method      GridPruning ... 4 (adaptive)
Weight generation scheme         WeightScheme... Becke
Basis function cutoff            BFCut       ... 1.0000e-12
Integration weight cutoff        WCut        ... 1.0000e-14
Angular grids for H and He will be reduced by one unit
Partially contracted basis set               ... off
Rotationally invariant grid construction     ... off

Total number of grid points                  ...    65888
Total number of batches                      ...     1030
Average number of points per batch           ...       63
Average number of grid points per atom       ...    65888
Time for grid setup =    4.704 sec

--------------
SCF ITERATIONS
--------------
ITER       Energy         Delta-E        Max-DP      RMS-DP      [F,P]     Damp
               ***  Starting incremental Fock matrix formation  ***
  0  -3013.6227933949   0.000000000000 0.01930820  0.00021976  0.8042091 0.7000
  1  -3013.6237338476  -0.000940452765 0.01898784  0.00022022  0.5548769 0.7000
                      *** Initiating the SOSCF procedure ***
                      *** Re-Reading the Fockian *** 
                      *** Removing any level shift *** 
ITER      Energy       Delta-E        Grad      Rot      Max-DP    RMS-DP
  2  -3013.62428044  -0.0005465883  0.002181  0.002181  0.049817  0.000592
               *** Restarting incremental Fock matrix formation ***
  3  -3013.62542591  -0.0011454706  0.004237  0.005633  0.017503  0.000138
  4  -3013.62543666  -0.0000107503  0.002610  0.000866  0.003071  0.000030
  5  -3013.62546378  -0.0000271197  0.000316  0.000425  0.003225  0.000034
  6  -3013.62546390  -0.0000001226  0.000071  0.000141  0.000328  0.000003
  7  -3013.62546393  -0.0000000344  0.000014  0.000014  0.000070  0.000001
  8  -3013.62546393  -0.0000000002  0.000003  0.000002  0.000019  0.000000
                 **** Energy Check signals convergence ****
              ***Rediagonalizing the Fockian in SOSCF/NRSCF***

               *****************************************************
               *                     SUCCESS                       *
               *           SCF CONVERGED AFTER   9 CYCLES          *
               *****************************************************


----------------
TOTAL SCF ENERGY
----------------

Total Energy       :        -3013.62546393 Eh          -82004.91792 eV

Components:
Nuclear Repulsion  :            0.00000000 Eh               0.00000 eV
Electronic Energy  :        -3013.62546393 Eh          -82004.91792 eV
One Electron Energy:        -4168.09718875 Eh         -113419.69065 eV
Two Electron Energy:         1154.47172482 Eh           31414.77273 eV

Virial components:
Potential Energy   :        -6102.48889466 Eh         -166057.16501 eV
Kinetic Energy     :         3088.86343072 Eh           84052.24708 eV
Virial Ratio       :            1.97564218


DFT components:
N(Alpha)           :       18.999999999937 electrons
N(Beta)            :       18.000000000042 electrons
N(Total)           :       36.999999999979 electrons
E(X)               :      -99.554436601715 Eh       
E(C)               :       -1.795593182090 Eh       
E(XC)              :     -101.350029783805 Eh       
DFET-embed. en.    :        0.000000000000 Eh       

---------------
SCF CONVERGENCE
---------------

  Last Energy change         ...    5.1386e-11  Tolerance :   1.0000e-09
  Last MAX-Density change    ...    1.1249e-06  Tolerance :   1.0000e-08
  Last RMS-Density change    ...    9.8632e-09  Tolerance :   1.0000e-09
  Last Orbital Gradient      ...    4.8167e-08  Tolerance :   2.0000e-06
  Last Orbital Rotation      ...    1.3597e-07  Tolerance :   2.0000e-06

             **** THE GBW FILE WAS UPDATED (Rb_ugbs_pbe.gbw) ****
             **** DENSITY Rb_ugbs_pbe.scfp WAS UPDATED ****
             **** ENERGY FILE WAS UPDATED (Rb_ugbs_pbe.en.tmp) ****
----------------------
UHF SPIN CONTAMINATION
----------------------

Warning: in a DFT calculation there is little theoretical justification to 
         calculate <S**2> as in Hartree-Fock theory. We will do it anyways
         but you should keep in mind that the values have only limited relevance

Expectation value of <S**2>     :     0.750135
Ideal value S*(S+1) for S=0.5   :     0.750000
Deviation                       :     0.000135

             **** THE GBW FILE WAS UPDATED (Rb_ugbs_pbe.gbw) ****
             **** DENSITY Rb_ugbs_pbe.scfp WAS UPDATED ****
----------------
ORBITAL ENERGIES
----------------
                 SPIN UP ORBITALS
  NO   OCC          E(Eh)            E(eV) 
   0   1.0000    -564.507722    -15361.0361 
   1   1.0000     -74.318754     -2022.3161 
   2   1.0000     -65.818386     -1791.0093 
   3   1.0000     -65.818386     -1791.0093 
   4   1.0000     -65.818386     -1791.0093 
   5   1.0000     -10.998162      -299.2752 
   6   1.0000      -8.288371      -225.5381 
   7   1.0000      -8.288371      -225.5381 
   8   1.0000      -8.288371      -225.5381 
   9   1.0000      -3.817587      -103.8818 
  10   1.0000      -3.817587      -103.8818 
  11   1.0000      -3.817587      -103.8818 
  12   1.0000      -3.817587      -103.8818 
  13   1.0000      -3.817587      -103.8818 
  14   1.0000      -1.174282       -31.9538 
  15   1.0000      -0.586333       -15.9549 
  16   1.0000      -0.586333       -15.9549 
  17   1.0000      -0.586333       -15.9549 
  18   1.0000      -0.089466        -2.4345 
  19   0.0000       0.013434         0.3655 
  20   0.0000       0.013434         0.3655 
  21   0.0000       0.013434         0.3655 
  22   0.0000       0.016818         0.4576 
  23   0.0000       0.161299         4.3892 
  24   0.0000       0.161299         4.3892 
  25   0.0000       0.161299         4.3892 
  26   0.0000       0.161299         4.3892 
  27   0.0000       0.161299         4.3892 
  28   0.0000       0.185444         5.0462 
  29   0.0000       0.434443        11.8218 
  30   0.0000       0.434443        11.8218 
  31   0.0000       0.434443        11.8218 
  32   0.0000       0.617105        16.7923 
  33   0.0000       1.147636        31.2288 
  34   0.0000       1.147636        31.2288 
  35   0.0000       1.147636        31.2288 
  36   0.0000       1.147636        31.2288 
  37   0.0000       1.147636        31.2288 
  38   0.0000       1.468788        39.9677 
  39   0.0000       1.468788        39.9677 
  40   0.0000       1.468788        39.9677 
  41   0.0000       1.728712        47.0406 
  42   0.0000       3.557520        96.8050 
  43   0.0000       3.557520        96.8050 
  44   0.0000       3.557520        96.8050 
  45   0.0000       3.557520        96.8050 
  46   0.0000       3.557520        96.8050 
  47   0.0000       3.980087       108.3037 
  48   0.0000       3.980087       108.3037 
  49   0.0000       3.980087       108.3037 
  50   0.0000       4.575319       124.5008 
  51   0.0000       8.900761       242.2020 
  52   0.0000       8.900761       242.2020 
  53   0.0000       8.900761       242.2020 
  54   0.0000       8.900761       242.2020 
  55   0.0000       8.900761       242.2020 
  56   0.0000      10.201287       277.5911 
  57   0.0000      10.201287       277.5911 
  58   0.0000      10.201287       277.5911 
  59   0.0000      12.070138       328.4451 
  60   0.0000      20.694747       563.1327 
  61   0.0000      20.694747       563.1327 
  62   0.0000      20.694747       563.1327 
  63   0.0000      20.694747       563.1327 
  64   0.0000      20.694747       563.1327 
  65   0.0000      25.674847       698.6481 
  66   0.0000      25.674847       698.6481 
  67   0.0000      25.674847       698.6481 
  68   0.0000      31.857435       866.8849 
  69   0.0000      46.582174      1267.5654 
  70   0.0000      46.582174      1267.5654 
  71   0.0000      46.582174      1267.5654 
  72   0.0000      46.582174      1267.5654 
  73   0.0000      46.582174      1267.5654 
  74   0.0000      63.339088      1723.5442 
  75   0.0000      63.339088      1723.5442 
  76   0.0000      63.339088      1723.5442 
  77   0.0000      83.104505      2261.3886 
  78   0.0000     103.023336      2803.4075 
  79   0.0000     103.023336      2803.4075 
  80   0.0000     103.023336      2803.4075 
  81   0.0000     103.023336      2803.4075 
  82   0.0000     103.023336      2803.4075 
  83   0.0000     151.823121      4131.3171 
  84   0.0000     151.823121      4131.3171 
  85   0.0000     151.823121      4131.3171 
  86   0.0000     210.972903      5740.8645 
  87   0.0000     224.767477      6116.2340 
  88   0.0000     224.767477      6116.2340 
  89   0.0000     224.767477      6116.2340 
  90   0.0000     224.767477      6116.2340 
  91   0.0000     224.767477      6116.2340 
  92   0.0000     350.667536      9542.1488 
  93   0.0000     350.667536      9542.1488 
  94   0.0000     350.667536      9542.1488 
  95   0.0000     482.854814     13139.1475 
  96   0.0000     482.854814     13139.1475 
  97   0.0000     482.854814     13139.1475 
  98   0.0000     482.854814     13139.1475 
  99   0.0000     482.854814     13139.1475 
 100   0.0000     513.785192     13980.8058 
 101   0.0000     779.641069     21215.1120 
 102   0.0000     779.641069     21215.1120 
 103   0.0000     779.641069     21215.1120 
 104   0.0000    1022.483144     27823.1809 
 105   0.0000    1022.483144     27823.1809 
 106   0.0000    1022.483144     27823.1809 
 107   0.0000    1022.483144     27823.1809 
 108   0.0000    1022.483144     27823.1809 
 109   0.0000    1192.142580     32439.8488 
 110   0.0000    1677.035379     45634.4527 
 111   0.0000    1677.035379     45634.4527 
 112   0.0000    1677.035379     45634.4527 
 113   0.0000    2138.840148     58200.7993 
 114   0.0000    2138.840148     58200.7993 
 115   0.0000    2138.840148     58200.7993 
 116   0.0000    2138.840148     58200.7993 
 117   0.0000    2138.840148     58200.7993 
 118   0.0000    2641.261530     71872.3801 
 119   0.0000    3513.564843     95608.9600 
 120   0.0000    3513.564843     95608.9600 
 121   0.0000    3513.564843     95608.9600 
 122   0.0000    4487.074538    122099.5056 
 123   0.0000    4487.074538    122099.5056 
 124   0.0000    4487.074538    122099.5056 
 125   0.0000    4487.074538    122099.5056 
 126   0.0000    4487.074538    122099.5056 
 127   0.0000    5629.766904    153193.7457 
 128   0.0000    7205.578438    196073.7575 
 129   0.0000    7205.578438    196073.7575 
 130   0.0000    7205.578438    196073.7575 
 131   0.0000    9548.125171    259817.6948 
 132   0.0000    9548.125171    259817.6948 
 133   0.0000    9548.125171    259817.6948 
 134   0.0000    9548.125171    259817.6948 
 135   0.0000    9548.125171    259817.6948 
 136   0.0000   11639.384342    316723.7499 
 137   0.0000   14574.084788    396581.0089 
 138   0.0000   14574.084788    396581.0089 
 139   0.0000   14574.084788    396581.0089 
 140   0.0000   23488.767269    639161.8517 
 141   0.0000   29097.835721    791792.3639 
 142   0.0000   29097.835721    791792.3639 
 143   0.0000   29097.835721    791792.3639 
 144   0.0000   46453.989609   1264077.3217 
 145   0.0000   58692.078449   1597092.6492 
 146   0.0000   58692.078449   1597092.6492 
 147   0.0000   58692.078449   1597092.6492 
 148   0.0000   90198.108854   2454415.3220 
 149   0.0000   117431.450182   3195472.2141 
 150   0.0000   117431.450182   3195472.2141 
 151   0.0000   117431.450182   3195472.2141 
 152   0.0000   172023.875962   4681007.6427 
 153   0.0000   321825.607635   8757319.9973 
 154   0.0000   590132.901837   16058332.6488 
 155   0.0000   1056593.383923   28751367.6678 
 156   0.0000   1855750.114684   50497527.8653 
 157   0.0000   3156239.570253   85885645.0484 
 158   0.0000   5480587.289516   149134361.9922 
 159   0.0000   8972531.345217   244154990.5032 

                 SPIN DOWN ORBITALS
  NO   OCC          E(Eh)            E(eV) 
   0   1.0000    -564.507509    -15361.0302 
   1   1.0000     -74.318595     -2022.3118 
   2   1.0000     -65.818245     -1791.0055 
   3   1.0000     -65.818245     -1791.0055 
   4   1.0000     -65.818245     -1791.0055 
   5   1.0000     -10.997874      -299.2674 
   6   1.0000      -8.288062      -225.5296 
   7   1.0000      -8.288062      -225.5296 
   8   1.0000      -8.288062      -225.5296 
   9   1.0000      -3.817228      -103.8721 
  10   1.0000      -3.817228      -103.8721 
  11   1.0000      -3.817228      -103.8721 
  12   1.0000      -3.817228      -103.8721 
  13   1.0000      -3.817228      -103.8721 
  14   1.0000      -1.172523       -31.9060 
  15   1.0000      -0.583045       -15.8655 
  16   1.0000      -0.583045       -15.8655 
  17   1.0000      -0.583045       -15.8655 
  18   0.0000      -0.057729        -1.5709 
  19   0.0000       0.045541         1.2392 
  20   0.0000       0.045541         1.2392 
  21   0.0000       0.045541         1.2392 
  22   0.0000       0.053110         1.4452 
  23   0.0000       0.169415         4.6100 
  24   0.0000       0.169415         4.6100 
  25   0.0000       0.169415         4.6100 
  26   0.0000       0.169415         4.6100 
  27   0.0000       0.169415         4.6100 
  28   0.0000       0.221724         6.0334 
  29   0.0000       0.460744        12.5375 
  30   0.0000       0.460744        12.5375 
  31   0.0000       0.460744        12.5375 
  32   0.0000       0.643726        17.5167 
  33   0.0000       1.155518        31.4432 
  34   0.0000       1.155518        31.4432 
  35   0.0000       1.155518        31.4432 
  36   0.0000       1.155518        31.4432 
  37   0.0000       1.155518        31.4432 
  38   0.0000       1.482638        40.3446 
  39   0.0000       1.482638        40.3446 
  40   0.0000       1.482638        40.3446 
  41   0.0000       1.741754        47.3955 
  42   0.0000       3.561429        96.9114 
  43   0.0000       3.561429        96.9114 
  44   0.0000       3.561429        96.9114 
  45   0.0000       3.561429        96.9114 
  46   0.0000       3.561429        96.9114 
  47   0.0000       3.986714       108.4840 
  48   0.0000       3.986714       108.4840 
  49   0.0000       3.986714       108.4840 
  50   0.0000       4.581273       124.6628 
  51   0.0000       8.902483       242.2489 
  52   0.0000       8.902483       242.2489 
  53   0.0000       8.902483       242.2489 
  54   0.0000       8.902483       242.2489 
  55   0.0000       8.902483       242.2489 
  56   0.0000      10.203819       277.6600 
  57   0.0000      10.203819       277.6600 
  58   0.0000      10.203819       277.6600 
  59   0.0000      12.072590       328.5119 
  60   0.0000      20.695838       563.1624 
  61   0.0000      20.695838       563.1624 
  62   0.0000      20.695838       563.1624 
  63   0.0000      20.695838       563.1624 
  64   0.0000      20.695838       563.1624 
  65   0.0000      25.676029       698.6803 
  66   0.0000      25.676029       698.6803 
  67   0.0000      25.676029       698.6803 
  68   0.0000      31.858437       866.9122 
  69   0.0000      46.582690      1267.5794 
  70   0.0000      46.582690      1267.5794 
  71   0.0000      46.582690      1267.5794 
  72   0.0000      46.582690      1267.5794 
  73   0.0000      46.582690      1267.5794 
  74   0.0000      63.339587      1723.5578 
  75   0.0000      63.339587      1723.5578 
  76   0.0000      63.339587      1723.5578 
  77   0.0000      83.104969      2261.4012 
  78   0.0000     103.023709      2803.4176 
  79   0.0000     103.023709      2803.4176 
  80   0.0000     103.023709      2803.4176 
  81   0.0000     103.023709      2803.4176 
  82   0.0000     103.023709      2803.4176 
  83   0.0000     151.823372      4131.3240 
  84   0.0000     151.823372      4131.3240 
  85   0.0000     151.823372      4131.3240 
  86   0.0000     210.973171      5740.8718 
  87   0.0000     224.767686      6116.2397 
  88   0.0000     224.767686      6116.2397 
  89   0.0000     224.767686      6116.2397 
  90   0.0000     224.767686      6116.2397 
  91   0.0000     224.767686      6116.2397 
  92   0.0000     350.667653      9542.1519 
  93   0.0000     350.667653      9542.1519 
  94   0.0000     350.667653      9542.1519 
  95   0.0000     482.854955     13139.1513 
  96   0.0000     482.854955     13139.1513 
  97   0.0000     482.854955     13139.1513 
  98   0.0000     482.854955     13139.1513 
  99   0.0000     482.854955     13139.1513 
 100   0.0000     513.785378     13980.8109 
 101   0.0000     779.641237     21215.1166 
 102   0.0000     779.641237     21215.1166 
 103   0.0000     779.641237     21215.1166 
 104   0.0000    1022.483216     27823.1828 
 105   0.0000    1022.483216     27823.1828 
 106   0.0000    1022.483216     27823.1828 
 107   0.0000    1022.483216     27823.1828 
 108   0.0000    1022.483216     27823.1828 
 109   0.0000    1192.142772     32439.8540 
 110   0.0000    1677.035566     45634.4578 
 111   0.0000    1677.035566     45634.4578 
 112   0.0000    1677.035566     45634.4578 
 113   0.0000    2138.840202     58200.8008 
 114   0.0000    2138.840202     58200.8008 
 115   0.0000    2138.840202     58200.8008 
 116   0.0000    2138.840202     58200.8008 
 117   0.0000    2138.840202     58200.8008 
 118   0.0000    2641.261723     71872.3854 
 119   0.0000    3513.564976     95608.9637 
 120   0.0000    3513.564976     95608.9637 
 121   0.0000    3513.564976     95608.9637 
 122   0.0000    4487.074601    122099.5073 
 123   0.0000    4487.074601    122099.5073 
 124   0.0000    4487.074601    122099.5073 
 125   0.0000    4487.074601    122099.5073 
 126   0.0000    4487.074601    122099.5073 
 127   0.0000    5629.767106    153193.7512 
 128   0.0000    7205.578661    196073.7636 
 129   0.0000    7205.578661    196073.7636 
 130   0.0000    7205.578661    196073.7636 
 131   0.0000    9548.125477    259817.7031 
 132   0.0000    9548.125477    259817.7031 
 133   0.0000    9548.125477    259817.7031 
 134   0.0000    9548.125477    259817.7031 
 135   0.0000    9548.125477    259817.7031 
 136   0.0000   11639.384691    316723.7594 
 137   0.0000   14574.085182    396581.0196 
 138   0.0000   14574.085182    396581.0196 
 139   0.0000   14574.085182    396581.0196 
 140   0.0000   23488.767790    639161.8659 
 141   0.0000   29097.836306    791792.3798 
 142   0.0000   29097.836306    791792.3798 
 143   0.0000   29097.836306    791792.3798 
 144   0.0000   46453.990273   1264077.3398 
 145   0.0000   58692.079201   1597092.6697 
 146   0.0000   58692.079201   1597092.6697 
 147   0.0000   58692.079201   1597092.6697 
 148   0.0000   90198.109600   2454415.3423 
 149   0.0000   117431.451028   3195472.2371 
 150   0.0000   117431.451028   3195472.2371 
 151   0.0000   117431.451028   3195472.2371 
 152   0.0000   172023.876724   4681007.6635 
 153   0.0000   321825.608348   8757320.0167 
 154   0.0000   590132.902450   16058332.6655 
 155   0.0000   1056593.384464   28751367.6826 
 156   0.0000   1855750.115307   50497527.8822 
 157   0.0000   3156239.571247   85885645.0754 
 158   0.0000   5480587.290276   149134362.0129 
 159   0.0000   8972531.344940   244154990.4957 

                    ********************************
                    * MULLIKEN POPULATION ANALYSIS *
                    ********************************

--------------------------------------------
MULLIKEN ATOMIC CHARGES AND SPIN POPULATIONS
--------------------------------------------
   0 Rb:    0.000000    1.000000
Sum of atomic charges         :    0.0000000
Sum of atomic spin populations:    1.0000000

-----------------------------------------------------
MULLIKEN REDUCED ORBITAL CHARGES AND SPIN POPULATIONS
-----------------------------------------------------
CHARGE
  0 Rbs       :     9.000000  s :     9.000000
      pz      :     6.000000  p :    18.000000
      px      :     6.000000
      py      :     6.000000
      dz2     :     2.000000  d :    10.000000
      dxz     :     2.000000
      dyz     :     2.000000
      dx2y2   :     2.000000
      dxy     :     2.000000

SPIN
  0 Rbs       :     1.000000  s :     1.000000
      pz      :    -0.000000  p :     0.000000
      px      :     0.000000
      py      :     0.000000
      dz2     :    -0.000000  d :     0.000000
      dxz     :     0.000000
      dyz     :     0.000000
      dx2y2   :    -0.000000
      dxy     :     0.000000


                     *******************************
                     * LOEWDIN POPULATION ANALYSIS *
                     *******************************

-------------------------------------------
LOEWDIN ATOMIC CHARGES AND SPIN POPULATIONS
-------------------------------------------
   0 Rb:    0.000000    1.000000

----------------------------------------------------
LOEWDIN REDUCED ORBITAL CHARGES AND SPIN POPULATIONS
----------------------------------------------------
CHARGE
  0 Rbs       :     9.000000  s :     9.000000
      pz      :     6.000000  p :    18.000000
      px      :     6.000000
      py      :     6.000000
      dz2     :     2.000000  d :    10.000000
      dxz     :     2.000000
      dyz     :     2.000000
      dx2y2   :     2.000000
      dxy     :     2.000000

SPIN
  0 Rbs       :     1.000000  s :     1.000000
      pz      :    -0.000000  p :     0.000000
      px      :     0.000000
      py      :     0.000000
      dz2     :    -0.000000  d :     0.000000
      dxz     :     0.000000
      dyz     :     0.000000
      dx2y2   :    -0.000000
      dxy     :     0.000000


                      *****************************
                      * MAYER POPULATION ANALYSIS *
                      *****************************

  NA   - Mulliken gross atomic population
  ZA   - Total nuclear charge
  QA   - Mulliken gross atomic charge
  VA   - Mayer's total valence
  BVA  - Mayer's bonded valence
  FA   - Mayer's free valence

  ATOM       NA         ZA         QA         VA         BVA        FA
  0 Rb    37.0000    37.0000     0.0000     1.0003     0.0000     1.0003

  Mayer bond orders larger than 0.100000


-------
TIMINGS
-------

Total SCF time: 0 days 0 hours 0 min 9 sec 

Total time                  ....       9.692 sec
Sum of individual times     ....       9.074 sec  ( 93.6%)

Fock matrix formation       ....       3.659 sec  ( 37.8%)
  XC integration            ....       1.814 sec  ( 49.6% of F)
    Basis function eval.    ....       0.048 sec  (  2.6% of XC)
    Density eval.           ....       0.110 sec  (  6.0% of XC)
    XC-Functional eval.     ....       0.037 sec  (  2.1% of XC)
    XC-Potential eval.      ....       0.095 sec  (  5.2% of XC)
Diagonalization             ....       0.077 sec  (  0.8%)
Density matrix formation    ....       0.009 sec  (  0.1%)
Population analysis         ....       0.068 sec  (  0.7%)
Initial guess               ....       0.257 sec  (  2.6%)
Orbital Transformation      ....       0.000 sec  (  0.0%)
Orbital Orthonormalization  ....       0.000 sec  (  0.0%)
DIIS solution               ....       0.023 sec  (  0.2%)
SOSCF solution              ....       0.089 sec  (  0.9%)
Grid generation             ....       4.891 sec  ( 50.5%)

Maximum memory used throughout the entire SCF-calculation: 231.9 MB

-------------------------   --------------------
FINAL SINGLE POINT ENERGY     -3013.625463933704
-------------------------   --------------------


                            ***************************************
                            *     ORCA property calculations      *
                            ***************************************

                                    ---------------------
                                    Active property flags
                                    ---------------------
   (+) Dipole Moment


------------------------------------------------------------------------------
                       ORCA ELECTRIC PROPERTIES CALCULATION
------------------------------------------------------------------------------

Dipole Moment Calculation                       ... on
Quadrupole Moment Calculation                   ... off
Polarizability Calculation                      ... off
GBWName                                         ... Rb_ugbs_pbe.gbw
Electron density                                ... Rb_ugbs_pbe.scfp
The origin for moment calculation is the CENTER OF MASS  = ( 0.000000,  0.000000  0.000000)

-------------
DIPOLE MOMENT
-------------
                                X             Y             Z
Electronic contribution:      0.00000       0.00000      -0.00000
Nuclear contribution   :      0.00000       0.00000       0.00000
                        -----------------------------------------
Total Dipole Moment    :      0.00000       0.00000      -0.00000
                        -----------------------------------------
Magnitude (a.u.)       :      0.00000
Magnitude (Debye)      :      0.00000



--------------------
Rotational spectrum 
--------------------
 
Rotational constants in cm-1:     0.000000     0.000000     0.000000 
Rotational constants in MHz :     0.000000     0.000000     0.000000 

 Dipole components along the rotational axes: 
x,y,z [a.u.] :     0.000000     0.000000    -0.000000 
x,y,z [Debye]:     0.000000     0.000000    -0.000000 

 

Timings for individual modules:

Sum of individual times         ...       24.282 sec (=   0.405 min)
GTO integral calculation        ...        4.930 sec (=   0.082 min)  20.3 %
Relativistic integrals          ...        6.972 sec (=   0.116 min)  28.7 %
SCF iterations                  ...       12.381 sec (=   0.206 min)  51.0 %
                             ****ORCA TERMINATED NORMALLY****
TOTAL RUN TIME: 0 days 0 hours 0 minutes 33 seconds 13 msec
