
                                 *****************
                                 * O   R   C   A *
                                 *****************

                                            #,                                       
                                            ###                                      
                                            ####                                     
                                            #####                                    
                                            ######                                   
                                           ########,                                 
                                     ,,################,,,,,                         
                               ,,#################################,,                 
                          ,,##########################################,,             
                       ,#########################################, ''#####,          
                    ,#############################################,,   '####,        
                  ,##################################################,,,,####,       
                ,###########''''           ''''###############################       
              ,#####''   ,,,,##########,,,,          '''####'''          '####       
            ,##' ,,,,###########################,,,                        '##       
           ' ,,###''''                  '''############,,,                           
         ,,##''                                '''############,,,,        ,,,,,,###''
      ,#''                                            '''#######################'''  
     '                                                          ''''####''''         
             ,#######,   #######,   ,#######,      ##                                
            ,#'     '#,  ##    ##  ,#'     '#,    #''#        ######   ,####,        
            ##       ##  ##   ,#'  ##            #'  '#       #        #'  '#        
            ##       ##  #######   ##           ,######,      #####,   #    #        
            '#,     ,#'  ##    ##  '#,     ,#' ,#      #,         ##   #,  ,#        
             '#######'   ##     ##  '#######'  #'      '#     #####' # '####'        



                  #######################################################
                  #                        -***-                        #
                  #          Department of theory and spectroscopy      #
                  #    Directorship and core code : Frank Neese         #
                  #        Max Planck Institute fuer Kohlenforschung    #
                  #                Kaiser Wilhelm Platz 1               #
                  #                 D-45470 Muelheim/Ruhr               #
                  #                      Germany                        #
                  #                                                     #
                  #                  All rights reserved                #
                  #                        -***-                        #
                  #######################################################


                         Program Version 5.0.1 -  RELEASE  -


 With contributions from (in alphabetic order):
   Daniel Aravena         : Magnetic Suceptibility
   Michael Atanasov       : Ab Initio Ligand Field Theory (pilot matlab implementation)
   Alexander A. Auer      : GIAO ZORA, VPT2 properties, NMR spectrum
   Ute Becker             : Parallelization
   Giovanni Bistoni       : ED, misc. LED, open-shell LED, HFLD
   Martin Brehm           : Molecular dynamics
   Dmytro Bykov           : SCF Hessian
   Vijay G. Chilkuri      : MRCI spin determinant printing, contributions to CSF-ICE
   Dipayan Datta          : RHF DLPNO-CCSD density
   Achintya Kumar Dutta   : EOM-CC, STEOM-CC
   Dmitry Ganyushin       : Spin-Orbit,Spin-Spin,Magnetic field MRCI
   Miquel Garcia          : C-PCM and meta-GGA Hessian, CC/C-PCM, Gaussian charge scheme
   Yang Guo               : DLPNO-NEVPT2, F12-NEVPT2, CIM, IAO-localization
   Andreas Hansen         : Spin unrestricted coupled pair/coupled cluster methods
   Benjamin Helmich-Paris : MC-RPA, TRAH-SCF, COSX integrals
   Lee Huntington         : MR-EOM, pCC
   Robert Izsak           : Overlap fitted RIJCOSX, COSX-SCS-MP3, EOM
   Marcus Kettner         : VPT2
   Christian Kollmar      : KDIIS, OOCD, Brueckner-CCSD(T), CCSD density, CASPT2, CASPT2-K
   Simone Kossmann        : Meta GGA functionals, TD-DFT gradient, OOMP2, MP2 Hessian
   Martin Krupicka        : Initial AUTO-CI
   Lucas Lang             : DCDCAS
   Marvin Lechner         : AUTO-CI (C++ implementation), FIC-MRCC
   Dagmar Lenk            : GEPOL surface, SMD
   Dimitrios Liakos       : Extrapolation schemes; Compound Job, initial MDCI parallelization
   Dimitrios Manganas     : Further ROCIS development; embedding schemes
   Dimitrios Pantazis     : SARC Basis sets
   Anastasios Papadopoulos: AUTO-CI, single reference methods and gradients
   Taras Petrenko         : DFT Hessian,TD-DFT gradient, ASA, ECA, R-Raman, ABS, FL, XAS/XES, NRVS
   Peter Pinski           : DLPNO-MP2, DLPNO-MP2 Gradient
   Christoph Reimann      : Effective Core Potentials
   Marius Retegan         : Local ZFS, SOC
   Christoph Riplinger    : Optimizer, TS searches, QM/MM, DLPNO-CCSD(T), (RO)-DLPNO pert. Triples
   Tobias Risthaus        : Range-separated hybrids, TD-DFT gradient, RPA, STAB
   Michael Roemelt        : Original ROCIS implementation
   Masaaki Saitow         : Open-shell DLPNO-CCSD energy and density
   Barbara Sandhoefer     : DKH picture change effects
   Avijit Sen             : IP-ROCIS
   Kantharuban Sivalingam : CASSCF convergence, NEVPT2, FIC-MRCI
   Bernardo de Souza      : ESD, SOC TD-DFT
   Georgi Stoychev        : AutoAux, RI-MP2 NMR, DLPNO-MP2 response
   Willem Van den Heuvel  : Paramagnetic NMR
   Boris Wezisla          : Elementary symmetry handling
   Frank Wennmohs         : Technical directorship


 We gratefully acknowledge several colleagues who have allowed us to
 interface, adapt or use parts of their codes:
   Stefan Grimme, W. Hujo, H. Kruse, P. Pracht,  : VdW corrections, initial TS optimization,
                  C. Bannwarth, S. Ehlert          DFT functionals, gCP, sTDA/sTD-DF
   Ed Valeev, F. Pavosevic, A. Kumar             : LibInt (2-el integral package), F12 methods
   Garnet Chan, S. Sharma, J. Yang, R. Olivares  : DMRG
   Ulf Ekstrom                                   : XCFun DFT Library
   Mihaly Kallay                                 : mrcc  (arbitrary order and MRCC methods)
   Jiri Pittner, Ondrej Demel                    : Mk-CCSD
   Frank Weinhold                                : gennbo (NPA and NBO analysis)
   Christopher J. Cramer and Donald G. Truhlar   : smd solvation model
   Lars Goerigk                                  : TD-DFT with DH, B97 family of functionals
   V. Asgeirsson, H. Jonsson                     : NEB implementation
   FAccTs GmbH                                   : IRC, NEB, NEB-TS, DLPNO-Multilevel, CI-OPT
                                                   MM, QMMM, 2- and 3-layer-ONIOM, Crystal-QMMM,
                                                   LR-CPCM, SF, NACMEs, symmetry and pop. for TD-DFT,
                                                   nearIR, NL-DFT gradient (VV10), updates on ESD,
                                                   ML-optimized integration grids
   S Lehtola, MJT Oliveira, MAL Marques          : LibXC Library
   Liviu Ungur et al                             : ANISO software


 Your calculation uses the libint2 library for the computation of 2-el integrals
 For citations please refer to: http://libint.valeyev.net

 Your ORCA version has been built with support for libXC version: 5.1.0
 For citations please refer to: https://tddft.org/programs/libxc/

 This ORCA versions uses:
   CBLAS   interface :  Fast vector & matrix operations
   LAPACKE interface :  Fast linear algebra routines
   SCALAPACK package :  Parallel linear algebra routines
   Shared memory     :  Shared parallel matrices
   BLAS/LAPACK       :  OpenBLAS 0.3.15  USE64BITINT DYNAMIC_ARCH NO_AFFINITY Haswell SINGLE_THREADED
        Core in use  :  Haswell
   Copyright (c) 2011-2014, The OpenBLAS Project


SCAN-COORDS

Reading of a custom basis requested
Basis file         : Rh_ano-rcc-vqzp.basis
READING GTO-BASIS: RHODIUM
Basis successfully read

================================================================================

----- Orbital basis set information -----
================================================================================
                                        WARNINGS
                       Please study these warnings very carefully!
================================================================================


INFO   : the flag for use of the SHARK integral package has been found!

================================================================================
                                       INPUT FILE
================================================================================
NAME = Rh_ano-rcc-vqzp_pbe.inp
|  1> !uks pbe nori verytightscf soscf notrah defgrid3
|  2> 
|  3> %pal
|  4>   nprocs 32
|  5> end
|  6> %coords
|  7>   charge 0
|  8>   mult 4
|  9>   units bohrs
| 10>   coords
| 11>     Rh 0.0 0.0 0.0
| 12>   end
| 13> end
| 14> %basis
| 15>   gtoname "Rh_ano-rcc-vqzp.basis"
| 16>   delECP Rh
| 17> end
| 18> %rel
| 19>   method zora
| 20>   modelpot 1, 0, 0, 0
| 21>   c 137.035999084
| 22> endd                         ****END OF INPUT****
================================================================================

                       ****************************
                       * Single Point Calculation *
                       ****************************

---------------------------------
CARTESIAN COORDINATES (ANGSTROEM)
---------------------------------
  Rh     0.000000    0.000000    0.000000

----------------------------
CARTESIAN COORDINATES (A.U.)
----------------------------
  NO LB      ZA    FRAG     MASS         X           Y           Z
   0 Rh   45.0000    0   102.910    0.000000    0.000000    0.000000

--------------------------------
INTERNAL COORDINATES (ANGSTROEM)
--------------------------------
 Rh     0   0   0     0.000000000000     0.00000000     0.00000000

---------------------------
INTERNAL COORDINATES (A.U.)
---------------------------
 Rh     0   0   0     0.000000000000     0.00000000     0.00000000

---------------------
BASIS SET INFORMATION
---------------------
There are 1 groups of distinct atoms

 Group   1 Type Rh  : 168s126p65d18f8g2h contracted to 8s7p5d3f2g1h pattern {2121212121212121/18181818181818/1313131313/666/44/2}

Atom   0Rh   basis set group =>   1


           ************************************************************
           *        Program running with 32 parallel MPI-processes    *
           *              working on a common directory               *
           ************************************************************
------------------------------------------------------------------------------
                           ORCA GTO INTEGRAL CALCULATION
------------------------------------------------------------------------------
------------------------------------------------------------------------------
                   ___                                                        
                  /   \      - P O W E R E D   B Y -                         
                 /     \                                                     
                 |  |  |   _    _      __       _____    __    __             
                 |  |  |  | |  | |    /  \     |  _  \  |  |  /  |          
                  \  \/   | |  | |   /    \    | | | |  |  | /  /          
                 / \  \   | |__| |  /  /\  \   | |_| |  |  |/  /          
                |  |  |   |  __  | /  /__\  \  |    /   |      \           
                |  |  |   | |  | | |   __   |  |    \   |  |\   \          
                \     /   | |  | | |  |  |  |  | |\  \  |  | \   \       
                 \___/    |_|  |_| |__|  |__|  |_| \__\ |__|  \__/        
                                                                              
                      - O R C A' S   B I G   F R I E N D -                    
                                      &                                       
                       - I N T E G R A L  F E E D E R -                       
                                                                              
 v1 FN, 2020, v2 2021                                                         
------------------------------------------------------------------------------


Reading SHARK input file Rh_ano-rcc-vqzp_pbe.SHARKINP.tmp ... ok
----------------------
SHARK INTEGRAL PACKAGE
----------------------

Number of atoms                             ...      1
Number of basis functions                   ...    104
Number of shells                            ...     26
Maximum angular momentum                    ...      5
Integral batch strategy                     ... SHARK/LIBINT Hybrid
RI-J (if used) integral strategy            ... SPLIT-RIJ (Revised 2003 algorithm where possible)
Printlevel                                  ...      1
Contraction scheme used                     ... SEGMENTED contraction
Coulomb Range Separation                    ... NOT USED
Exchange Range Separation                   ... NOT USED
Finite Nucleus Model                        ... NOT USED
Auxiliary Coulomb fitting basis             ... NOT available
Auxiliary J/K fitting basis                 ... NOT available
Auxiliary Correlation fitting basis         ... NOT available
Auxiliary 'external' fitting basis          ... NOT available
Integral threshold                          ...     1.000000e-12
Primitive cut-off                           ...     1.000000e-14
Primitive pair pre-selection threshold      ...     1.000000e-14

Calculating pre-screening integrals         ... done ( 25.6 sec) Dimension = 26
Organizing shell pair data                  ... done (  0.4 sec)
Shell pair information
Total number of shell pairs                 ...       351
Shell pairs after pre-screening             ...       351
Total number of primitive shell pairs       ...     78277
Primitive shell pairs kept                  ...     78277
          la=0 lb=0:     36 shell pairs
          la=1 lb=0:     56 shell pairs
          la=1 lb=1:     28 shell pairs
          la=2 lb=0:     40 shell pairs
          la=2 lb=1:     35 shell pairs
          la=2 lb=2:     15 shell pairs
          la=3 lb=0:     24 shell pairs
          la=3 lb=1:     21 shell pairs
          la=3 lb=2:     15 shell pairs
          la=3 lb=3:      6 shell pairs
          la=4 lb=0:     16 shell pairs
          la=4 lb=1:     14 shell pairs
          la=4 lb=2:     10 shell pairs
          la=4 lb=3:      6 shell pairs
          la=4 lb=4:      3 shell pairs
          la=5 lb=0:      8 shell pairs
          la=5 lb=1:      7 shell pairs
          la=5 lb=2:      5 shell pairs
          la=5 lb=3:      3 shell pairs
          la=5 lb=4:      2 shell pairs
          la=5 lb=5:      1 shell pairs

Calculating one electron integrals          ... done (  0.1 sec)
Calculating Nuclear repulsion               ... done (  0.0 sec) ENN=      0.000000000000 Eh

SHARK setup successfully completed in  26.7 seconds

Maximum memory used throughout the entire GTOINT-calculation: 279.7 MB


           ************************************************************
           *        Program running with 32 parallel MPI-processes    *
           *              working on a common directory               *
           ************************************************************
------------------------------------------------------------------------------
                          ORCA RELATIVISTIC HAMILTONIAN
------------------------------------------------------------------------------

Relativistic Method            ... ZORA(MP)
Treatment of potential         ... Van Wuellen
Nucleus model                  ... Point Nucleus
Speed of light used            ... 137.03599908400000


            *************************************************
            *         ZERO ORDER REGULAR APPROXIMATION      *
            *                     ZORA(MP)                  *
            *            Programmed by FN according to      *
            *                   C. van Wuellen              *
            *       J. Chem. Phys. (1998) vol 109, 392-399  *
            *************************************************

Terms included in model potential: +V(e,N)
Basis function cutoff value   ... 1.000000e-12
Loading the fitted atomic densities  (DKH4)  ... done
Calculating the cutoffs                      ... done
Number of fit functions                      ... 29
Setting up the integration grid ... done

Maximum memory used throughout the entire REL-calculation: 23.6 MB


           ************************************************************
           *        Program running with 32 parallel MPI-processes    *
           *              working on a common directory               *
           ************************************************************
-------------------------------------------------------------------------------
                                 ORCA SCF
-------------------------------------------------------------------------------

------------
SCF SETTINGS
------------
Hamiltonian:
 Density Functional     Method          .... DFT(GTOs)
 Exchange Functional    Exchange        .... PBE
   PBE kappa parameter   XKappa         ....  0.804000
   PBE mue parameter    XMuePBE         ....  0.219520
 Correlation Functional Correlation     .... PBE
   PBE beta parameter  CBetaPBE         ....  0.066725
 LDA part of GGA corr.  LDAOpt          .... PW91-LDA
 Gradients option       PostSCFGGA      .... off
   Density functional embedding theory  .... OFF
   NL short-range parameter             ....  6.400000

Relativistic Settings:
 Scalar relativistic method             .... ZORA
 Speed of light used       Velit        ....       137.035999
Orbital energies will be scaled


General Settings:
 Integral files         IntName         .... Rh_ano-rcc-vqzp_pbe
 Hartree-Fock type      HFTyp           .... UHF
 Total Charge           Charge          ....    0
 Multiplicity           Mult            ....    4
 Number of Electrons    NEL             ....   45
 Basis Dimension        Dim             ....  104
 Nuclear Repulsion      ENuc            ....      0.0000000000 Eh

Convergence Acceleration:
 DIIS                   CNVDIIS         .... on
   Start iteration      DIISMaxIt       ....    12
   Startup error        DIISStart       ....  0.200000
   # of expansion vecs  DIISMaxEq       ....     5
   Bias factor          DIISBfac        ....   1.050
   Max. coefficient     DIISMaxC        ....  10.000
 Trust-Rad. Augm. Hess. CNVTRAH         .... off
 SOSCF                  CNVSOSCF        .... on
   Start iteration      SOSCFMaxIt      ....   150
   Startup grad/error   SOSCFStart      ....  0.003300
 Level Shifting         CNVShift        .... on
   Level shift para.    LevelShift      ....    0.2500
   Turn off err/grad.   ShiftErr        ....    0.0010
 Zerner damping         CNVZerner       .... off
 Static damping         CNVDamp         .... on
   Fraction old density DampFac         ....    0.7000
   Max. Damping (<1)    DampMax         ....    0.9800
   Min. Damping (>=0)   DampMin         ....    0.0000
   Turn off err/grad.   DampErr         ....    0.1000
 Fernandez-Rico         CNVRico         .... off

SCF Procedure:
 Maximum # iterations   MaxIter         ....   125
 SCF integral mode      SCFMode         .... Direct
   Integral package                     .... SHARK and LIBINT hybrid scheme
 Reset frequency        DirectResetFreq ....    20
 Integral Threshold     Thresh          ....  1.000e-12 Eh
 Primitive CutOff       TCut            ....  1.000e-14 Eh

Convergence Tolerance:
 Convergence Check Mode ConvCheckMode   .... Total+1el-Energy
 Convergence forced     ConvForced      .... 0
 Energy Change          TolE            ....  1.000e-09 Eh
 1-El. energy change                    ....  1.000e-06 Eh
 Orbital Gradient       TolG            ....  2.000e-06
 Orbital Rotation angle TolX            ....  2.000e-06
 DIIS Error             TolErr          ....  1.000e-08


Diagonalization of the overlap matrix:
Smallest eigenvalue                        ... 1.000e+00
Time for diagonalization                   ...    0.036 sec
Threshold for overlap eigenvalues          ... 1.000e-08
Number of eigenvalues below threshold      ... 0
Time for construction of square roots      ...    0.048 sec
Total time needed                          ...    0.086 sec

Time for model grid setup =    0.189 sec

------------------------------
INITIAL GUESS: MODEL POTENTIAL
------------------------------
Loading ZORA relativistic densities                ... done
Calculating cut-offs                               ... done
Initializing the effective Hamiltonian             ... done
Setting up the integral package (SHARK)            ... done
Starting the Coulomb interaction                   ... done (   0.5 sec)
Reading the grid                                   ... done
Mapping shells                                     ... done
Starting the XC term evaluation                    ... done (   0.1 sec)
  promolecular density results
     # of electrons  =     44.999999975
     EX              =   -139.435527784
     EC              =     -2.250912317
     EX+EC           =   -141.686440101
Transforming the Hamiltonian                       ... done (   0.0 sec)
Diagonalizing the Hamiltonian                      ... done (   0.0 sec)
Back transforming the eigenvectors                 ... done (   0.0 sec)
Now organizing SCF variables                       ... done
                      ------------------
                      INITIAL GUESS DONE (   0.8 sec)
                      ------------------
-------------------
DFT GRID GENERATION
-------------------

General Integration Accuracy     IntAcc      ... 4.959
Radial Grid Type                 RadialGrid  ... OptM3 with GC (2021)
Angular Grid (max. ang.)         AngularGrid ... 6 (Lebedev-590)
Angular grid pruning method      GridPruning ... 4 (adaptive)
Weight generation scheme         WeightScheme... Becke
Basis function cutoff            BFCut       ... 1.0000e-12
Integration weight cutoff        WCut        ... 1.0000e-14
Angular grids for H and He will be reduced by one unit
Partially contracted basis set               ... off
Rotationally invariant grid construction     ... off

Total number of grid points                  ...    65888
Total number of batches                      ...     1030
Average number of points per batch           ...       63
Average number of grid points per atom       ...    65888
Time for grid setup =    4.190 sec

--------------
SCF ITERATIONS
--------------
ITER       Energy         Delta-E        Max-DP      RMS-DP      [F,P]     Damp
               ***  Starting incremental Fock matrix formation  ***
  0  -4844.4946685469   0.000000000000 0.27515595  0.00365959  0.6429917 0.7000
  1  -4844.8115529215  -0.316884374590 0.20789855  0.00226809  0.2014575 0.7000
                               ***Turning on DIIS***
  2  -4844.8676930231  -0.056140101564 0.14965962  0.00145035  0.1169934 0.7000
  3  -4844.9207389881  -0.053045964957 0.29377533  0.00341569  0.0787947 0.0000
  4  -4845.0671778730  -0.146438884971 0.08294359  0.00094509  0.0673262 0.0000
  5  -4845.0793690821  -0.012191209062 0.09283024  0.00104543  0.0227054 0.0000
  6  -4845.0869022188  -0.007533136713 0.11730270  0.00119337  0.0252451 0.0000
  7  -4845.0953960175  -0.008493798701 0.14102601  0.00134754  0.0241788 0.0000
  8  -4845.1002243788  -0.004828361294 0.13472263  0.00127686  0.0605661 0.0000
  9  -4845.1038110180  -0.003586639154 0.11080743  0.00108652  0.0837540 0.0000
 10  -4845.1056895702  -0.001878552232 0.02509728  0.00026517  0.1001739 0.7000
 11  -4845.1058764124  -0.000186842229 0.03454861  0.00038683  0.1041220 0.7000
 12  -4845.1070545943  -0.001178181873 0.03564985  0.00042740  0.1064020 0.7000
 13  -4845.1076022821  -0.000547687810 0.03266554  0.00041222  0.1103508 0.7000
 14  -4845.1122549344  -0.004652652289 0.07606692  0.00153735  0.0987718 0.0000
 15  -4845.1231157667  -0.010860832345 0.02587930  0.00042979  0.0925352 0.0000
 16  -4845.1337591326  -0.010643365903 0.02708381  0.00033544  0.0214604 0.0000
 17  -4845.1353763860  -0.001617253317 0.02401276  0.00029976  0.0069786 0.0000
 18  -4845.1362936492  -0.000917263214 0.02405814  0.00029081  0.0060228 0.0000
 19  -4845.1370883892  -0.000794739988 0.02468388  0.00028489  0.0053034 0.0000
               *** Restarting incremental Fock matrix formation ***
                                   *** Resetting DIIS ***
 20  -4845.1378056634  -0.000717274219 0.02365577  0.00026182  0.0049410 0.0000
 21  -4845.1384162843  -0.000610620946 0.02254961  0.00024277  0.0048109 0.0000
 22  -4845.1389515856  -0.000535301238 0.02127930  0.00022346  0.0046790 0.0000
 23  -4845.1394057606  -0.000454175034 0.02008814  0.00020701  0.0046530 0.0000
 24  -4845.1397991776  -0.000393417009 0.01891768  0.00019242  0.0064026 0.0000
 25  -4845.1401455328  -0.000346355161 0.01804141  0.00018307  0.0079309 0.0000
 26  -4845.1404775420  -0.000332009228 0.01704399  0.00017308  0.0089633 0.0000
 27  -4845.1407898248  -0.000312282808 0.01576835  0.00016191  0.0094589 0.0000
 28  -4845.1410717545  -0.000281929746 0.01457436  0.00015636  0.0097943 0.0000
 29  -4845.1414016055  -0.000329850935 0.01560689  0.00017773  0.0078038 0.0000
 30  -4845.1418346370  -0.000433031552 0.01843186  0.00021272  0.0037494 0.0000
 31  -4845.1422568138  -0.000422176808 0.01698577  0.00019141  0.0039539 0.0000
 32  -4845.1425862489  -0.000329435054 0.01634751  0.00018482  0.0036270 0.0000
 33  -4845.1428943094  -0.000308060521 0.01619723  0.00018727  0.0034282 0.0000
 34  -4845.1431920657  -0.000297756282 0.01502270  0.00017523  0.0033751 0.0000
 35  -4845.1434509194  -0.000258853714 0.01468892  0.00017524  0.0031630 0.0000
 36  -4845.1436696692  -0.000218749798 0.01141867  0.00013553  0.0031177 0.0000
 37  -4845.1438428907  -0.000173221536 0.01178187  0.00014331  0.0025601 0.0000
 38  -4845.1440206475  -0.000177756719 0.01090411  0.00013530  0.0025278 0.0000
 39  -4845.1441307177  -0.000110070203 0.00913290  0.00011103  0.0037446 0.0000
               *** Restarting incremental Fock matrix formation ***
                                   *** Resetting DIIS ***
                      *** Initiating the SOSCF procedure ***
                           *** Shutting down DIIS ***
                      *** Re-Reading the Fockian *** 
                      *** Removing any level shift *** 
ITER      Energy       Delta-E        Grad      Rot      Max-DP    RMS-DP
 40  -4845.14427633  -0.0001456103  0.002791  0.002791  0.008335  0.000100
               *** Restarting incremental Fock matrix formation ***
 41  -4845.14436534  -0.0000890103  0.002112  0.042246  0.038235  0.000470
 42  -4845.14463386  -0.0002685249  0.003337  0.039113  0.035067  0.000442
 43  -4845.14474675  -0.0001128861  0.000927  0.002979  0.002615  0.000041
 44  -4845.14474861  -0.0000018582  0.000770  0.001981  0.001716  0.000027
 45  -4845.14475202  -0.0000034136  0.000260  0.001270  0.001221  0.000015
 46  -4845.14475238  -0.0000003614  0.000041  0.000207  0.000164  0.000002
 47  -4845.14475240  -0.0000000135  0.000006  0.000053  0.000060  0.000001
 48  -4845.14475240  -0.0000000006  0.000004  0.000011  0.000009  0.000000
 49  -4845.14475240  -0.0000000001  0.000001  0.000013  0.000012  0.000000
                  ***Gradient check signals convergence***
              ***Rediagonalizing the Fockian in SOSCF/NRSCF***

               *****************************************************
               *                     SUCCESS                       *
               *           SCF CONVERGED AFTER  50 CYCLES          *
               *****************************************************


----------------
TOTAL SCF ENERGY
----------------

Total Energy       :        -4845.14475240 Eh         -131843.09149 eV

Components:
Nuclear Repulsion  :            0.00000000 Eh               0.00000 eV
Electronic Energy  :        -4845.14475240 Eh         -131843.09149 eV
One Electron Energy:        -6660.39652348 Eh         -181238.60340 eV
Two Electron Energy:         1815.25177109 Eh           49395.51191 eV

Virial components:
Potential Energy   :        -9970.85830252 Eh         -271320.84810 eV
Kinetic Energy     :         5125.71355012 Eh          139477.75661 eV
Virial Ratio       :            1.94526249


DFT components:
N(Alpha)           :       23.999999998506 electrons
N(Beta)            :       20.999999998153 electrons
N(Total)           :       44.999999996659 electrons
E(X)               :     -137.537289692409 Eh       
E(C)               :       -2.309142283716 Eh       
E(XC)              :     -139.846431976125 Eh       
DFET-embed. en.    :        0.000000000000 Eh       

---------------
SCF CONVERGENCE
---------------

  Last Energy change         ...   -5.3660e-11  Tolerance :   1.0000e-09
  Last MAX-Density change    ...    2.2716e-05  Tolerance :   1.0000e-08
  Last RMS-Density change    ...    2.9343e-07  Tolerance :   1.0000e-09
  Last Orbital Gradient      ...    4.7913e-07  Tolerance :   2.0000e-06
  Last Orbital Rotation      ...    2.6658e-05  Tolerance :   2.0000e-06

             **** THE GBW FILE WAS UPDATED (Rh_ano-rcc-vqzp_pbe.gbw) ****
             **** DENSITY Rh_ano-rcc-vqzp_pbe.scfp WAS UPDATED ****
             **** ENERGY FILE WAS UPDATED (Rh_ano-rcc-vqzp_pbe.en.tmp) ****
----------------------
UHF SPIN CONTAMINATION
----------------------

Warning: in a DFT calculation there is little theoretical justification to 
         calculate <S**2> as in Hartree-Fock theory. We will do it anyways
         but you should keep in mind that the values have only limited relevance

Expectation value of <S**2>     :     3.750679
Ideal value S*(S+1) for S=1.5   :     3.750000
Deviation                       :     0.000679

             **** THE GBW FILE WAS UPDATED (Rh_ano-rcc-vqzp_pbe.gbw) ****
             **** DENSITY Rh_ano-rcc-vqzp_pbe.scfp WAS UPDATED ****
----------------
ORBITAL ENERGIES
----------------
                 SPIN UP ORBITALS
  NO   OCC          E(Eh)            E(eV) 
   0   1.0000    -868.688828    -23638.2247 
   1   1.0000    -123.495314     -3360.4783 
   2   1.0000    -111.175271     -3025.2329 
   3   1.0000    -111.175271     -3025.2329 
   4   1.0000    -111.175271     -3025.2329 
   5   1.0000     -21.971428      -597.8730 
   6   1.0000     -17.855725      -485.8790 
   7   1.0000     -17.855725      -485.8790 
   8   1.0000     -17.855725      -485.8790 
   9   1.0000     -11.104337      -302.1644 
  10   1.0000     -11.104337      -302.1644 
  11   1.0000     -11.094334      -301.8922 
  12   1.0000     -11.094333      -301.8922 
  13   1.0000     -11.094333      -301.8922 
  14   1.0000      -3.046724       -82.9056 
  15   1.0000      -1.881387       -51.1951 
  16   1.0000      -1.881385       -51.1951 
  17   1.0000      -1.881385       -51.1951 
  18   1.0000      -0.256423        -6.9776 
  19   1.0000      -0.256423        -6.9776 
  20   1.0000      -0.226053        -6.1512 
  21   1.0000      -0.226052        -6.1512 
  22   1.0000      -0.226052        -6.1512 
  23   1.0000      -0.173297        -4.7156 
  24   0.0000      -0.031635        -0.8608 
  25   0.0000      -0.031634        -0.8608 
  26   0.0000      -0.031634        -0.8608 
  27   0.0000       0.024802         0.6749 
  28   0.0000       0.213910         5.8208 
  29   0.0000       0.213910         5.8208 
  30   0.0000       0.218509         5.9459 
  31   0.0000       0.218509         5.9459 
  32   0.0000       0.218510         5.9460 
  33   0.0000       0.319012         8.6808 
  34   0.0000       0.319013         8.6808 
  35   0.0000       0.319014         8.6808 
  36   0.0000       0.640299        17.4234 
  37   0.0000       0.699377        19.0310 
  38   0.0000       0.699378        19.0310 
  39   0.0000       0.699378        19.0310 
  40   0.0000       0.704618        19.1736 
  41   0.0000       0.704619        19.1736 
  42   0.0000       0.704620        19.1737 
  43   0.0000       0.712112        19.3776 
  44   0.0000       1.394231        37.9389 
  45   0.0000       1.394231        37.9389 
  46   0.0000       1.414034        38.4778 
  47   0.0000       1.414034        38.4778 
  48   0.0000       1.414035        38.4778 
  49   0.0000       2.010907        54.7195 
  50   0.0000       2.010907        54.7196 
  51   0.0000       2.010908        54.7196 
  52   0.0000       2.027538        55.1721 
  53   0.0000       2.027539        55.1722 
  54   0.0000       2.027541        55.1722 
  55   0.0000       2.048030        55.7297 
  56   0.0000       2.057435        55.9856 
  57   0.0000       2.057436        55.9857 
  58   0.0000       2.057437        55.9857 
  59   0.0000       2.294795        62.4446 
  60   0.0000       2.299136        62.5627 
  61   0.0000       2.299136        62.5627 
  62   0.0000       2.299136        62.5627 
  63   0.0000       2.303044        62.6690 
  64   0.0000       2.303044        62.6690 
  65   0.0000       2.314215        62.9730 
  66   0.0000       2.314216        62.9730 
  67   0.0000       2.314217        62.9730 
  68   0.0000       4.558903       124.0541 
  69   0.0000       5.383936       146.5044 
  70   0.0000       5.383936       146.5044 
  71   0.0000       5.406663       147.1228 
  72   0.0000       5.406664       147.1228 
  73   0.0000       5.406664       147.1228 
  74   0.0000       5.439282       148.0104 
  75   0.0000       5.439282       148.0104 
  76   0.0000       5.439283       148.0104 
  77   0.0000       5.453099       148.3864 
  78   0.0000       5.453100       148.3864 
  79   0.0000       5.453101       148.3864 
  80   0.0000       5.470728       148.8661 
  81   0.0000       6.751338       183.7132 
  82   0.0000       6.760833       183.9716 
  83   0.0000       6.760833       183.9716 
  84   0.0000       6.760833       183.9716 
  85   0.0000       6.767902       184.1640 
  86   0.0000       6.767902       184.1640 
  87   0.0000       6.788828       184.7334 
  88   0.0000       6.788829       184.7334 
  89   0.0000       6.788829       184.7334 
  90   0.0000       7.494343       203.9314 
  91   0.0000       7.494343       203.9314 
  92   0.0000       7.494343       203.9314 
  93   0.0000       7.501931       204.1379 
  94   0.0000       7.501931       204.1379 
  95   0.0000       7.501932       204.1379 
  96   0.0000       7.521943       204.6825 
  97   0.0000       7.521943       204.6825 
  98   0.0000       7.525709       204.7849 
  99   0.0000       7.525710       204.7850 
 100   0.0000       7.525710       204.7850 
 101   0.0000       8.377054       227.9512 
 102   0.0000       8.377055       227.9513 
 103   0.0000       8.377056       227.9513 

                 SPIN DOWN ORBITALS
  NO   OCC          E(Eh)            E(eV) 
   0   1.0000    -868.688305    -23638.2105 
   1   1.0000    -123.485082     -3360.1999 
   2   1.0000    -111.167498     -3025.0214 
   3   1.0000    -111.167497     -3025.0214 
   4   1.0000    -111.167497     -3025.0214 
   5   1.0000     -21.965532      -597.7125 
   6   1.0000     -17.849077      -485.6981 
   7   1.0000     -17.849077      -485.6981 
   8   1.0000     -17.849076      -485.6981 
   9   1.0000     -11.089003      -301.7471 
  10   1.0000     -11.089002      -301.7471 
  11   1.0000     -11.089002      -301.7471 
  12   1.0000     -11.087683      -301.7112 
  13   1.0000     -11.087683      -301.7112 
  14   1.0000      -2.995549       -81.5130 
  15   1.0000      -1.826681       -49.7065 
  16   1.0000      -1.826681       -49.7065 
  17   1.0000      -1.826680       -49.7065 
  18   1.0000      -0.191290        -5.2053 
  19   1.0000      -0.191289        -5.2052 
  20   1.0000      -0.191289        -5.2052 
  21   0.0000      -0.160483        -4.3670 
  22   0.0000      -0.160466        -4.3665 
  23   0.0000      -0.128956        -3.5091 
  24   0.0000       0.004445         0.1210 
  25   0.0000       0.004455         0.1212 
  26   0.0000       0.004552         0.1239 
  27   0.0000       0.052227         1.4212 
  28   0.0000       0.246503         6.7077 
  29   0.0000       0.246504         6.7077 
  30   0.0000       0.246505         6.7077 
  31   0.0000       0.259983         7.0745 
  32   0.0000       0.260161         7.0793 
  33   0.0000       0.364236         9.9114 
  34   0.0000       0.364239         9.9114 
  35   0.0000       0.364268         9.9122 
  36   0.0000       0.684358        18.6223 
  37   0.0000       0.738848        20.1051 
  38   0.0000       0.751734        20.4557 
  39   0.0000       0.751735        20.4558 
  40   0.0000       0.751738        20.4558 
  41   0.0000       0.764347        20.7989 
  42   0.0000       0.764361        20.7993 
  43   0.0000       0.764492        20.8029 
  44   0.0000       1.449070        39.4312 
  45   0.0000       1.449071        39.4312 
  46   0.0000       1.449071        39.4312 
  47   0.0000       1.472456        40.0676 
  48   0.0000       1.472480        40.0682 
  49   0.0000       2.060929        56.0807 
  50   0.0000       2.075947        56.4894 
  51   0.0000       2.075947        56.4894 
  52   0.0000       2.075949        56.4894 
  53   0.0000       2.089773        56.8656 
  54   0.0000       2.089776        56.8657 
  55   0.0000       2.089803        56.8664 
  56   0.0000       2.115071        57.5540 
  57   0.0000       2.115078        57.5542 
  58   0.0000       2.115142        57.5559 
  59   0.0000       2.351799        63.9957 
  60   0.0000       2.351799        63.9957 
  61   0.0000       2.351799        63.9957 
  62   0.0000       2.369593        64.4799 
  63   0.0000       2.369613        64.4804 
  64   0.0000       2.374124        64.6032 
  65   0.0000       2.374125        64.6032 
  66   0.0000       2.374125        64.6032 
  67   0.0000       2.387296        64.9616 
  68   0.0000       4.596312       125.0720 
  69   0.0000       5.430128       147.7613 
  70   0.0000       5.430129       147.7613 
  71   0.0000       5.430129       147.7613 
  72   0.0000       5.449026       148.2755 
  73   0.0000       5.449043       148.2760 
  74   0.0000       5.481454       149.1579 
  75   0.0000       5.493105       149.4750 
  76   0.0000       5.493105       149.4750 
  77   0.0000       5.493106       149.4750 
  78   0.0000       5.506400       149.8368 
  79   0.0000       5.506404       149.8369 
  80   0.0000       5.506453       149.8382 
  81   0.0000       6.814138       185.4221 
  82   0.0000       6.814138       185.4221 
  83   0.0000       6.814138       185.4221 
  84   0.0000       6.829657       185.8444 
  85   0.0000       6.829666       185.8447 
  86   0.0000       6.832307       185.9165 
  87   0.0000       6.832307       185.9165 
  88   0.0000       6.832309       185.9166 
  89   0.0000       6.847610       186.3329 
  90   0.0000       7.561837       205.7680 
  91   0.0000       7.561838       205.7681 
  92   0.0000       7.561839       205.7681 
  93   0.0000       7.562252       205.7793 
  94   0.0000       7.562253       205.7794 
  95   0.0000       7.580531       206.2767 
  96   0.0000       7.580533       206.2768 
  97   0.0000       7.580535       206.2768 
  98   0.0000       7.593720       206.6356 
  99   0.0000       7.593722       206.6357 
 100   0.0000       7.593726       206.6358 
 101   0.0000       8.410698       228.8667 
 102   0.0000       8.410699       228.8668 
 103   0.0000       8.410713       228.8671 

                    ********************************
                    * MULLIKEN POPULATION ANALYSIS *
                    ********************************

--------------------------------------------
MULLIKEN ATOMIC CHARGES AND SPIN POPULATIONS
--------------------------------------------
   0 Rh:   -0.000000    3.000000
Sum of atomic charges         :   -0.0000000
Sum of atomic spin populations:    3.0000000

-----------------------------------------------------
MULLIKEN REDUCED ORBITAL CHARGES AND SPIN POPULATIONS
-----------------------------------------------------
CHARGE
  0 Rhs       :     8.999960  s :     8.999960
      pz      :     5.999927  p :    17.999782
      px      :     5.999927
      py      :     5.999927
      dz2     :     3.717593  d :    17.999900
      dxz     :     3.168768
      dyz     :     3.874395
      dx2y2   :     3.590870
      dxy     :     3.648273
      f0      :     0.000008  f :     0.000186
      f+1     :     0.000048
      f-1     :     0.000023
      f+2     :     0.000031
      f-2     :     0.000026
      f+3     :     0.000032
      f-3     :     0.000017
      g0      :     0.000020  g :     0.000140
      g+1     :     0.000010
      g-1     :     0.000012
      g+2     :     0.000022
      g-2     :     0.000016
      g+3     :     0.000008
      g-3     :     0.000020
      g+4     :     0.000007
      g-4     :     0.000025
      h0      :     0.000001  h :     0.000033
      h+1     :     0.000003
      h-1     :     0.000001
      h+2     :     0.000005
      h-2     :     0.000004
      h+3     :     0.000006
      h-3     :     0.000005
      h+4     :     0.000000
      h-4     :     0.000002
      h+5     :     0.000003
      h-5     :     0.000003

SPIN
  0 Rhs       :     0.999981  s :     0.999981
      pz      :    -0.000009  p :    -0.000028
      px      :    -0.000009
      py      :    -0.000009
      dz2     :     0.282381  d :     1.999948
      dxz     :     0.831185
      dyz     :     0.125586
      dx2y2   :     0.409099
      dxy     :     0.351699
      f0      :     0.000001  f :     0.000024
      f+1     :     0.000006
      f-1     :     0.000003
      f+2     :     0.000004
      f-2     :     0.000003
      f+3     :     0.000004
      f-3     :     0.000002
      g0      :     0.000015  g :     0.000070
      g+1     :     0.000006
      g-1     :     0.000002
      g+2     :     0.000008
      g-2     :     0.000004
      g+3     :     0.000005
      g-3     :     0.000018
      g+4     :    -0.000000
      g-4     :     0.000013
      h0      :    -0.000000  h :     0.000004
      h+1     :     0.000000
      h-1     :    -0.000000
      h+2     :     0.000001
      h-2     :     0.000001
      h+3     :     0.000001
      h-3     :     0.000000
      h+4     :     0.000000
      h-4     :    -0.000000
      h+5     :     0.000000
      h-5     :     0.000001


                     *******************************
                     * LOEWDIN POPULATION ANALYSIS *
                     *******************************

-------------------------------------------
LOEWDIN ATOMIC CHARGES AND SPIN POPULATIONS
-------------------------------------------
   0 Rh:   -0.000000    3.000000

----------------------------------------------------
LOEWDIN REDUCED ORBITAL CHARGES AND SPIN POPULATIONS
----------------------------------------------------
CHARGE
  0 Rhs       :     8.999960  s :     8.999960
      pz      :     5.999927  p :    17.999782
      px      :     5.999927
      py      :     5.999927
      dz2     :     3.717593  d :    17.999900
      dxz     :     3.168768
      dyz     :     3.874395
      dx2y2   :     3.590870
      dxy     :     3.648273
      f0      :     0.000008  f :     0.000186
      f+1     :     0.000048
      f-1     :     0.000023
      f+2     :     0.000031
      f-2     :     0.000026
      f+3     :     0.000032
      f-3     :     0.000017
      g0      :     0.000020  g :     0.000140
      g+1     :     0.000010
      g-1     :     0.000012
      g+2     :     0.000022
      g-2     :     0.000016
      g+3     :     0.000008
      g-3     :     0.000020
      g+4     :     0.000007
      g-4     :     0.000025
      h0      :     0.000001  h :     0.000033
      h+1     :     0.000003
      h-1     :     0.000001
      h+2     :     0.000005
      h-2     :     0.000004
      h+3     :     0.000006
      h-3     :     0.000005
      h+4     :     0.000000
      h-4     :     0.000002
      h+5     :     0.000003
      h-5     :     0.000003

SPIN
  0 Rhs       :     0.999981  s :     0.999981
      pz      :    -0.000009  p :    -0.000028
      px      :    -0.000009
      py      :    -0.000009
      dz2     :     0.282381  d :     1.999948
      dxz     :     0.831185
      dyz     :     0.125586
      dx2y2   :     0.409099
      dxy     :     0.351699
      f0      :     0.000001  f :     0.000024
      f+1     :     0.000006
      f-1     :     0.000003
      f+2     :     0.000004
      f-2     :     0.000003
      f+3     :     0.000004
      f-3     :     0.000002
      g0      :     0.000015  g :     0.000070
      g+1     :     0.000006
      g-1     :     0.000002
      g+2     :     0.000008
      g-2     :     0.000004
      g+3     :     0.000005
      g-3     :     0.000018
      g+4     :    -0.000000
      g-4     :     0.000013
      h0      :    -0.000000  h :     0.000004
      h+1     :     0.000000
      h-1     :    -0.000000
      h+2     :     0.000001
      h-2     :     0.000001
      h+3     :     0.000001
      h-3     :     0.000000
      h+4     :     0.000000
      h-4     :    -0.000000
      h+5     :     0.000000
      h-5     :     0.000001


                      *****************************
                      * MAYER POPULATION ANALYSIS *
                      *****************************

  NA   - Mulliken gross atomic population
  ZA   - Total nuclear charge
  QA   - Mulliken gross atomic charge
  VA   - Mayer's total valence
  BVA  - Mayer's bonded valence
  FA   - Mayer's free valence

  ATOM       NA         ZA         QA         VA         BVA        FA
  0 Rh    45.0000    45.0000    -0.0000     3.0014     0.0000     3.0014

  Mayer bond orders larger than 0.100000


-------
TIMINGS
-------

Total SCF time: 0 days 2 hours 43 min 40 sec 

Total time                  ....    9820.900 sec
Sum of individual times     ....    9810.129 sec  ( 99.9%)

Fock matrix formation       ....    9795.592 sec  ( 99.7%)
  XC integration            ....      21.592 sec  (  0.2% of F)
    Basis function eval.    ....       1.010 sec  (  4.7% of XC)
    Density eval.           ....       0.563 sec  (  2.6% of XC)
    XC-Functional eval.     ....       0.357 sec  (  1.7% of XC)
    XC-Potential eval.      ....       0.679 sec  (  3.1% of XC)
Diagonalization             ....       1.475 sec  (  0.0%)
Density matrix formation    ....       0.027 sec  (  0.0%)
Population analysis         ....       4.254 sec  (  0.0%)
Initial guess               ....       0.596 sec  (  0.0%)
Orbital Transformation      ....       0.000 sec  (  0.0%)
Orbital Orthonormalization  ....       0.000 sec  (  0.0%)
DIIS solution               ....       1.365 sec  (  0.0%)
SOSCF solution              ....       2.442 sec  (  0.0%)
Grid generation             ....       4.379 sec  (  0.0%)

Maximum memory used throughout the entire SCF-calculation: 265.8 MB

-------------------------   --------------------
FINAL SINGLE POINT ENERGY     -4845.144752396875
-------------------------   --------------------


                            ***************************************
                            *     ORCA property calculations      *
                            ***************************************

                                    ---------------------
                                    Active property flags
                                    ---------------------
   (+) Dipole Moment


------------------------------------------------------------------------------
                       ORCA ELECTRIC PROPERTIES CALCULATION
------------------------------------------------------------------------------

Dipole Moment Calculation                       ... on
Quadrupole Moment Calculation                   ... off
Polarizability Calculation                      ... off
GBWName                                         ... Rh_ano-rcc-vqzp_pbe.gbw
Electron density                                ... Rh_ano-rcc-vqzp_pbe.scfp
The origin for moment calculation is the CENTER OF MASS  = ( 0.000000,  0.000000  0.000000)

-------------
DIPOLE MOMENT
-------------
                                X             Y             Z
Electronic contribution:     -0.00000       0.00000       0.00000
Nuclear contribution   :      0.00000       0.00000       0.00000
                        -----------------------------------------
Total Dipole Moment    :     -0.00000       0.00000       0.00000
                        -----------------------------------------
Magnitude (a.u.)       :      0.00000
Magnitude (Debye)      :      0.00000



--------------------
Rotational spectrum 
--------------------
 
Rotational constants in cm-1:     0.000000     0.000000     0.000000 
Rotational constants in MHz :     0.000000     0.000000     0.000000 

 Dipole components along the rotational axes: 
x,y,z [a.u.] :    -0.000000     0.000000     0.000000 
x,y,z [Debye]:    -0.000000     0.000000     0.000000 

 

Timings for individual modules:

Sum of individual times         ...     9863.568 sec (= 164.393 min)
GTO integral calculation        ...       30.933 sec (=   0.516 min)   0.3 %
Relativistic integrals          ...        7.197 sec (=   0.120 min)   0.1 %
SCF iterations                  ...     9825.438 sec (= 163.757 min)  99.6 %
                             ****ORCA TERMINATED NORMALLY****
TOTAL RUN TIME: 0 days 2 hours 44 minutes 35 seconds 950 msec
