
                                 *****************
                                 * O   R   C   A *
                                 *****************

                                            #,                                       
                                            ###                                      
                                            ####                                     
                                            #####                                    
                                            ######                                   
                                           ########,                                 
                                     ,,################,,,,,                         
                               ,,#################################,,                 
                          ,,##########################################,,             
                       ,#########################################, ''#####,          
                    ,#############################################,,   '####,        
                  ,##################################################,,,,####,       
                ,###########''''           ''''###############################       
              ,#####''   ,,,,##########,,,,          '''####'''          '####       
            ,##' ,,,,###########################,,,                        '##       
           ' ,,###''''                  '''############,,,                           
         ,,##''                                '''############,,,,        ,,,,,,###''
      ,#''                                            '''#######################'''  
     '                                                          ''''####''''         
             ,#######,   #######,   ,#######,      ##                                
            ,#'     '#,  ##    ##  ,#'     '#,    #''#        ######   ,####,        
            ##       ##  ##   ,#'  ##            #'  '#       #        #'  '#        
            ##       ##  #######   ##           ,######,      #####,   #    #        
            '#,     ,#'  ##    ##  '#,     ,#' ,#      #,         ##   #,  ,#        
             '#######'   ##     ##  '#######'  #'      '#     #####' # '####'        



                  #######################################################
                  #                        -***-                        #
                  #          Department of theory and spectroscopy      #
                  #    Directorship and core code : Frank Neese         #
                  #        Max Planck Institute fuer Kohlenforschung    #
                  #                Kaiser Wilhelm Platz 1               #
                  #                 D-45470 Muelheim/Ruhr               #
                  #                      Germany                        #
                  #                                                     #
                  #                  All rights reserved                #
                  #                        -***-                        #
                  #######################################################


                         Program Version 5.0.1 -  RELEASE  -


 With contributions from (in alphabetic order):
   Daniel Aravena         : Magnetic Suceptibility
   Michael Atanasov       : Ab Initio Ligand Field Theory (pilot matlab implementation)
   Alexander A. Auer      : GIAO ZORA, VPT2 properties, NMR spectrum
   Ute Becker             : Parallelization
   Giovanni Bistoni       : ED, misc. LED, open-shell LED, HFLD
   Martin Brehm           : Molecular dynamics
   Dmytro Bykov           : SCF Hessian
   Vijay G. Chilkuri      : MRCI spin determinant printing, contributions to CSF-ICE
   Dipayan Datta          : RHF DLPNO-CCSD density
   Achintya Kumar Dutta   : EOM-CC, STEOM-CC
   Dmitry Ganyushin       : Spin-Orbit,Spin-Spin,Magnetic field MRCI
   Miquel Garcia          : C-PCM and meta-GGA Hessian, CC/C-PCM, Gaussian charge scheme
   Yang Guo               : DLPNO-NEVPT2, F12-NEVPT2, CIM, IAO-localization
   Andreas Hansen         : Spin unrestricted coupled pair/coupled cluster methods
   Benjamin Helmich-Paris : MC-RPA, TRAH-SCF, COSX integrals
   Lee Huntington         : MR-EOM, pCC
   Robert Izsak           : Overlap fitted RIJCOSX, COSX-SCS-MP3, EOM
   Marcus Kettner         : VPT2
   Christian Kollmar      : KDIIS, OOCD, Brueckner-CCSD(T), CCSD density, CASPT2, CASPT2-K
   Simone Kossmann        : Meta GGA functionals, TD-DFT gradient, OOMP2, MP2 Hessian
   Martin Krupicka        : Initial AUTO-CI
   Lucas Lang             : DCDCAS
   Marvin Lechner         : AUTO-CI (C++ implementation), FIC-MRCC
   Dagmar Lenk            : GEPOL surface, SMD
   Dimitrios Liakos       : Extrapolation schemes; Compound Job, initial MDCI parallelization
   Dimitrios Manganas     : Further ROCIS development; embedding schemes
   Dimitrios Pantazis     : SARC Basis sets
   Anastasios Papadopoulos: AUTO-CI, single reference methods and gradients
   Taras Petrenko         : DFT Hessian,TD-DFT gradient, ASA, ECA, R-Raman, ABS, FL, XAS/XES, NRVS
   Peter Pinski           : DLPNO-MP2, DLPNO-MP2 Gradient
   Christoph Reimann      : Effective Core Potentials
   Marius Retegan         : Local ZFS, SOC
   Christoph Riplinger    : Optimizer, TS searches, QM/MM, DLPNO-CCSD(T), (RO)-DLPNO pert. Triples
   Tobias Risthaus        : Range-separated hybrids, TD-DFT gradient, RPA, STAB
   Michael Roemelt        : Original ROCIS implementation
   Masaaki Saitow         : Open-shell DLPNO-CCSD energy and density
   Barbara Sandhoefer     : DKH picture change effects
   Avijit Sen             : IP-ROCIS
   Kantharuban Sivalingam : CASSCF convergence, NEVPT2, FIC-MRCI
   Bernardo de Souza      : ESD, SOC TD-DFT
   Georgi Stoychev        : AutoAux, RI-MP2 NMR, DLPNO-MP2 response
   Willem Van den Heuvel  : Paramagnetic NMR
   Boris Wezisla          : Elementary symmetry handling
   Frank Wennmohs         : Technical directorship


 We gratefully acknowledge several colleagues who have allowed us to
 interface, adapt or use parts of their codes:
   Stefan Grimme, W. Hujo, H. Kruse, P. Pracht,  : VdW corrections, initial TS optimization,
                  C. Bannwarth, S. Ehlert          DFT functionals, gCP, sTDA/sTD-DF
   Ed Valeev, F. Pavosevic, A. Kumar             : LibInt (2-el integral package), F12 methods
   Garnet Chan, S. Sharma, J. Yang, R. Olivares  : DMRG
   Ulf Ekstrom                                   : XCFun DFT Library
   Mihaly Kallay                                 : mrcc  (arbitrary order and MRCC methods)
   Jiri Pittner, Ondrej Demel                    : Mk-CCSD
   Frank Weinhold                                : gennbo (NPA and NBO analysis)
   Christopher J. Cramer and Donald G. Truhlar   : smd solvation model
   Lars Goerigk                                  : TD-DFT with DH, B97 family of functionals
   V. Asgeirsson, H. Jonsson                     : NEB implementation
   FAccTs GmbH                                   : IRC, NEB, NEB-TS, DLPNO-Multilevel, CI-OPT
                                                   MM, QMMM, 2- and 3-layer-ONIOM, Crystal-QMMM,
                                                   LR-CPCM, SF, NACMEs, symmetry and pop. for TD-DFT,
                                                   nearIR, NL-DFT gradient (VV10), updates on ESD,
                                                   ML-optimized integration grids
   S Lehtola, MJT Oliveira, MAL Marques          : LibXC Library
   Liviu Ungur et al                             : ANISO software


 Your calculation uses the libint2 library for the computation of 2-el integrals
 For citations please refer to: http://libint.valeyev.net

 Your ORCA version has been built with support for libXC version: 5.1.0
 For citations please refer to: https://tddft.org/programs/libxc/

 This ORCA versions uses:
   CBLAS   interface :  Fast vector & matrix operations
   LAPACKE interface :  Fast linear algebra routines
   SCALAPACK package :  Parallel linear algebra routines
   Shared memory     :  Shared parallel matrices
   BLAS/LAPACK       :  OpenBLAS 0.3.15  USE64BITINT DYNAMIC_ARCH NO_AFFINITY Haswell SINGLE_THREADED
        Core in use  :  Haswell
   Copyright (c) 2011-2014, The OpenBLAS Project


SCAN-COORDS

Reading of a custom basis requested
Basis file         : Rh_sapporo-qzp-2012-diffuse.basis
READING GTO-BASIS: RHODIUM
Basis successfully read

================================================================================

----- Orbital basis set information -----
================================================================================
                                        WARNINGS
                       Please study these warnings very carefully!
================================================================================


INFO   : the flag for use of the SHARK integral package has been found!

================================================================================
                                       INPUT FILE
================================================================================
NAME = Rh_sapporo-qzp-2012-diffuse_pbe.inp
|  1> !uks pbe nori verytightscf soscf notrah defgrid3
|  2> 
|  3> %pal
|  4>   nprocs 32
|  5> end
|  6> %coords
|  7>   charge 0
|  8>   mult 4
|  9>   units bohrs
| 10>   coords
| 11>     Rh 0.0 0.0 0.0
| 12>   end
| 13> end
| 14> %basis
| 15>   gtoname "Rh_sapporo-qzp-2012-diffuse.basis"
| 16>   delECP Rh
| 17> end
| 18> %rel
| 19>   method zora
| 20>   modelpot 1, 0, 0, 0
| 21>   c 137.035999084
| 22> endd                         ****END OF INPUT****
================================================================================

                       ****************************
                       * Single Point Calculation *
                       ****************************

---------------------------------
CARTESIAN COORDINATES (ANGSTROEM)
---------------------------------
  Rh     0.000000    0.000000    0.000000

----------------------------
CARTESIAN COORDINATES (A.U.)
----------------------------
  NO LB      ZA    FRAG     MASS         X           Y           Z
   0 Rh   45.0000    0   102.910    0.000000    0.000000    0.000000

--------------------------------
INTERNAL COORDINATES (ANGSTROEM)
--------------------------------
 Rh     0   0   0     0.000000000000     0.00000000     0.00000000

---------------------------
INTERNAL COORDINATES (A.U.)
---------------------------
 Rh     0   0   0     0.000000000000     0.00000000     0.00000000

---------------------
BASIS SET INFORMATION
---------------------
There are 1 groups of distinct atoms

 Group   1 Type Rh  : 22s16p13d4f3g2h contracted to 11s9p7d4f3g2h pattern {74221111111/721111111/7111111/1111/111/11}

Atom   0Rh   basis set group =>   1


           ************************************************************
           *        Program running with 32 parallel MPI-processes    *
           *              working on a common directory               *
           ************************************************************
------------------------------------------------------------------------------
                           ORCA GTO INTEGRAL CALCULATION
------------------------------------------------------------------------------
------------------------------------------------------------------------------
                   ___                                                        
                  /   \      - P O W E R E D   B Y -                         
                 /     \                                                     
                 |  |  |   _    _      __       _____    __    __             
                 |  |  |  | |  | |    /  \     |  _  \  |  |  /  |          
                  \  \/   | |  | |   /    \    | | | |  |  | /  /          
                 / \  \   | |__| |  /  /\  \   | |_| |  |  |/  /          
                |  |  |   |  __  | /  /__\  \  |    /   |      \           
                |  |  |   | |  | | |   __   |  |    \   |  |\   \          
                \     /   | |  | | |  |  |  |  | |\  \  |  | \   \       
                 \___/    |_|  |_| |__|  |__|  |_| \__\ |__|  \__/        
                                                                              
                      - O R C A' S   B I G   F R I E N D -                    
                                      &                                       
                       - I N T E G R A L  F E E D E R -                       
                                                                              
 v1 FN, 2020, v2 2021                                                         
------------------------------------------------------------------------------


Reading SHARK input file Rh_sapporo-qzp-2012-diffuse_pbe.SHARKINP.tmp ... ok
----------------------
SHARK INTEGRAL PACKAGE
----------------------

Number of atoms                             ...      1
Number of basis functions                   ...    150
Number of shells                            ...     36
Maximum angular momentum                    ...      5
Integral batch strategy                     ... SHARK/LIBINT Hybrid
RI-J (if used) integral strategy            ... SPLIT-RIJ (Revised 2003 algorithm where possible)
Printlevel                                  ...      1
Contraction scheme used                     ... SEGMENTED contraction
Coulomb Range Separation                    ... NOT USED
Exchange Range Separation                   ... NOT USED
Finite Nucleus Model                        ... NOT USED
Auxiliary Coulomb fitting basis             ... NOT available
Auxiliary J/K fitting basis                 ... NOT available
Auxiliary Correlation fitting basis         ... NOT available
Auxiliary 'external' fitting basis          ... NOT available
Integral threshold                          ...     1.000000e-12
Primitive cut-off                           ...     1.000000e-14
Primitive pair pre-selection threshold      ...     1.000000e-14

Calculating pre-screening integrals         ... done (  1.0 sec) Dimension = 36
Organizing shell pair data                  ... done (  0.2 sec)
Shell pair information
Total number of shell pairs                 ...       666
Shell pairs after pre-screening             ...       666
Total number of primitive shell pairs       ...      1902
Primitive shell pairs kept                  ...      1902
          la=0 lb=0:     66 shell pairs
          la=1 lb=0:     99 shell pairs
          la=1 lb=1:     45 shell pairs
          la=2 lb=0:     77 shell pairs
          la=2 lb=1:     63 shell pairs
          la=2 lb=2:     28 shell pairs
          la=3 lb=0:     44 shell pairs
          la=3 lb=1:     36 shell pairs
          la=3 lb=2:     28 shell pairs
          la=3 lb=3:     10 shell pairs
          la=4 lb=0:     33 shell pairs
          la=4 lb=1:     27 shell pairs
          la=4 lb=2:     21 shell pairs
          la=4 lb=3:     12 shell pairs
          la=4 lb=4:      6 shell pairs
          la=5 lb=0:     22 shell pairs
          la=5 lb=1:     18 shell pairs
          la=5 lb=2:     14 shell pairs
          la=5 lb=3:      8 shell pairs
          la=5 lb=4:      6 shell pairs
          la=5 lb=5:      3 shell pairs

Calculating one electron integrals          ... done (  0.2 sec)
Calculating Nuclear repulsion               ... done (  0.0 sec) ENN=      0.000000000000 Eh

SHARK setup successfully completed in   1.7 seconds

Maximum memory used throughout the entire GTOINT-calculation: 39.4 MB


           ************************************************************
           *        Program running with 32 parallel MPI-processes    *
           *              working on a common directory               *
           ************************************************************
------------------------------------------------------------------------------
                          ORCA RELATIVISTIC HAMILTONIAN
------------------------------------------------------------------------------

Relativistic Method            ... ZORA(MP)
Treatment of potential         ... Van Wuellen
Nucleus model                  ... Point Nucleus
Speed of light used            ... 137.03599908400000


            *************************************************
            *         ZERO ORDER REGULAR APPROXIMATION      *
            *                     ZORA(MP)                  *
            *            Programmed by FN according to      *
            *                   C. van Wuellen              *
            *       J. Chem. Phys. (1998) vol 109, 392-399  *
            *************************************************

Terms included in model potential: +V(e,N)
Basis function cutoff value   ... 1.000000e-12
Loading the fitted atomic densities  (DKH4)  ... done
Calculating the cutoffs                      ... done
Number of fit functions                      ... 29
Setting up the integration grid ... done

Maximum memory used throughout the entire REL-calculation: 12.2 MB


           ************************************************************
           *        Program running with 32 parallel MPI-processes    *
           *              working on a common directory               *
           ************************************************************
-------------------------------------------------------------------------------
                                 ORCA SCF
-------------------------------------------------------------------------------

------------
SCF SETTINGS
------------
Hamiltonian:
 Density Functional     Method          .... DFT(GTOs)
 Exchange Functional    Exchange        .... PBE
   PBE kappa parameter   XKappa         ....  0.804000
   PBE mue parameter    XMuePBE         ....  0.219520
 Correlation Functional Correlation     .... PBE
   PBE beta parameter  CBetaPBE         ....  0.066725
 LDA part of GGA corr.  LDAOpt          .... PW91-LDA
 Gradients option       PostSCFGGA      .... off
   Density functional embedding theory  .... OFF
   NL short-range parameter             ....  6.400000

Relativistic Settings:
 Scalar relativistic method             .... ZORA
 Speed of light used       Velit        ....       137.035999
Orbital energies will be scaled


General Settings:
 Integral files         IntName         .... Rh_sapporo-qzp-2012-diffuse_pbe
 Hartree-Fock type      HFTyp           .... UHF
 Total Charge           Charge          ....    0
 Multiplicity           Mult            ....    4
 Number of Electrons    NEL             ....   45
 Basis Dimension        Dim             ....  150
 Nuclear Repulsion      ENuc            ....      0.0000000000 Eh

Convergence Acceleration:
 DIIS                   CNVDIIS         .... on
   Start iteration      DIISMaxIt       ....    12
   Startup error        DIISStart       ....  0.200000
   # of expansion vecs  DIISMaxEq       ....     5
   Bias factor          DIISBfac        ....   1.050
   Max. coefficient     DIISMaxC        ....  10.000
 Trust-Rad. Augm. Hess. CNVTRAH         .... off
 SOSCF                  CNVSOSCF        .... on
   Start iteration      SOSCFMaxIt      ....   150
   Startup grad/error   SOSCFStart      ....  0.003300
 Level Shifting         CNVShift        .... on
   Level shift para.    LevelShift      ....    0.2500
   Turn off err/grad.   ShiftErr        ....    0.0010
 Zerner damping         CNVZerner       .... off
 Static damping         CNVDamp         .... on
   Fraction old density DampFac         ....    0.7000
   Max. Damping (<1)    DampMax         ....    0.9800
   Min. Damping (>=0)   DampMin         ....    0.0000
   Turn off err/grad.   DampErr         ....    0.1000
 Fernandez-Rico         CNVRico         .... off

SCF Procedure:
 Maximum # iterations   MaxIter         ....   125
 SCF integral mode      SCFMode         .... Direct
   Integral package                     .... SHARK and LIBINT hybrid scheme
 Reset frequency        DirectResetFreq ....    20
 Integral Threshold     Thresh          ....  1.000e-12 Eh
 Primitive CutOff       TCut            ....  1.000e-14 Eh

Convergence Tolerance:
 Convergence Check Mode ConvCheckMode   .... Total+1el-Energy
 Convergence forced     ConvForced      .... 0
 Energy Change          TolE            ....  1.000e-09 Eh
 1-El. energy change                    ....  1.000e-06 Eh
 Orbital Gradient       TolG            ....  2.000e-06
 Orbital Rotation angle TolX            ....  2.000e-06
 DIIS Error             TolErr          ....  1.000e-08


Diagonalization of the overlap matrix:
Smallest eigenvalue                        ... 1.143e-04
Time for diagonalization                   ...    0.011 sec
Threshold for overlap eigenvalues          ... 1.000e-08
Number of eigenvalues below threshold      ... 0
Time for construction of square roots      ...    0.031 sec
Total time needed                          ...    0.043 sec

Time for model grid setup =    0.072 sec

------------------------------
INITIAL GUESS: MODEL POTENTIAL
------------------------------
Loading ZORA relativistic densities                ... done
Calculating cut-offs                               ... done
Initializing the effective Hamiltonian             ... done
Setting up the integral package (SHARK)            ... done
Starting the Coulomb interaction                   ... done (   0.4 sec)
Reading the grid                                   ... done
Mapping shells                                     ... done
Starting the XC term evaluation                    ... done (   0.1 sec)
  promolecular density results
     # of electrons  =     44.999998311
     EX              =   -139.435503837
     EC              =     -2.250849031
     EX+EC           =   -141.686352868
Transforming the Hamiltonian                       ... done (   0.0 sec)
Diagonalizing the Hamiltonian                      ... done (   0.0 sec)
Back transforming the eigenvectors                 ... done (   0.0 sec)
Now organizing SCF variables                       ... done
                      ------------------
                      INITIAL GUESS DONE (   0.6 sec)
                      ------------------
-------------------
DFT GRID GENERATION
-------------------

General Integration Accuracy     IntAcc      ... 4.959
Radial Grid Type                 RadialGrid  ... OptM3 with GC (2021)
Angular Grid (max. ang.)         AngularGrid ... 6 (Lebedev-590)
Angular grid pruning method      GridPruning ... 4 (adaptive)
Weight generation scheme         WeightScheme... Becke
Basis function cutoff            BFCut       ... 1.0000e-12
Integration weight cutoff        WCut        ... 1.0000e-14
Angular grids for H and He will be reduced by one unit
Partially contracted basis set               ... off
Rotationally invariant grid construction     ... off

Total number of grid points                  ...    32866
Total number of batches                      ...      514
Average number of points per batch           ...       63
Average number of grid points per atom       ...    32866
Time for grid setup =    1.003 sec

--------------
SCF ITERATIONS
--------------
ITER       Energy         Delta-E        Max-DP      RMS-DP      [F,P]     Damp
               ***  Starting incremental Fock matrix formation  ***
  0  -4837.2941941952   0.000000000000 0.31759345  0.00286476  0.5752792 0.7000
  1  -4837.6061916464  -0.311997451230 0.21349047  0.00185675  0.2328890 0.7000
                               ***Turning on DIIS***
  2  -4837.6591670388  -0.052975392388 0.12079937  0.00112715  0.1608937 0.7000
  3  -4837.7138521674  -0.054685128633 0.06663615  0.00078198  0.1078641 0.7000
  4  -4837.7617704849  -0.047918317474 0.17274268  0.00194979  0.0727814 0.0000
  5  -4837.8825058835  -0.120735398613 0.03695376  0.00063508  0.0284481 0.0000
  6  -4837.8936037056  -0.011097822082 0.05488084  0.00062645  0.0206772 0.0000
  7  -4837.9037991775  -0.010195471883 0.05036616  0.00055637  0.0242754 0.0000
  8  -4837.9120893749  -0.008290197484 0.04095864  0.00048009  0.0282342 0.0000
  9  -4837.9162164971  -0.004127122143 0.03009281  0.00039046  0.0480591 0.0000
 10  -4837.9173340542  -0.001117557063 0.02133806  0.00031708  0.0654462 0.0000
 11  -4837.9195764187  -0.002242364587 0.01464566  0.00025115  0.0694492 0.0000
 12  -4837.9220511167  -0.002474698003 0.00972848  0.00020516  0.0680871 0.0000
 13  -4837.9254114403  -0.003360323513 0.01816050  0.00029220  0.0602462 0.0000
 14  -4837.9328961990  -0.007484758766 0.01617930  0.00027982  0.0176518 0.0000
 15  -4837.9355597602  -0.002663561133 0.00810183  0.00015979  0.0051468 0.0000
 16  -4837.9368027597  -0.001242999559 0.00393406  0.00013152  0.0044022 0.0000
 17  -4837.9377687448  -0.000965985074 0.00350192  0.00012349  0.0042832 0.0000
 18  -4837.9386077255  -0.000838980753 0.00293631  0.00010332  0.0041470 0.0000
 19  -4837.9392623248  -0.000654599300 0.00271867  0.00011058  0.0038593 0.0000
               *** Restarting incremental Fock matrix formation ***
                                   *** Resetting DIIS ***
 20  -4837.9398172925  -0.000554967636 0.00237205  0.00008748  0.0038054 0.0000
 21  -4837.9402727776  -0.000455485138 0.00222934  0.00007100  0.0033287 0.0000
 22  -4837.9406244887  -0.000351711132 0.00203935  0.00006133  0.0030344 0.0000
 23  -4837.9408916787  -0.000267189968 0.00195635  0.00005693  0.0027902 0.0000
 24  -4837.9411263396  -0.000234660937 0.00203837  0.00005985  0.0026491 0.0000
 25  -4837.9413089663  -0.000182626612 0.00174754  0.00004583  0.0030839 0.0000
 26  -4837.9414774045  -0.000168438288 0.00170497  0.00004457  0.0022404 0.0000
                      *** Initiating the SOSCF procedure ***
                           *** Shutting down DIIS ***
                      *** Re-Reading the Fockian *** 
                      *** Removing any level shift *** 
ITER      Energy       Delta-E        Grad      Rot      Max-DP    RMS-DP
 27  -4837.94159912  -0.0001217184  0.003164  0.003164  0.001546  0.000037
               *** Restarting incremental Fock matrix formation ***
 28  -4837.94170478  -0.0001056592  0.002861  0.057217  0.008031  0.000182
 29  -4837.94199173  -0.0002869473  0.003278  0.034472  0.005023  0.000118
 30  -4837.94209464  -0.0001029084  0.000940  0.005526  0.000932  0.000027
 31  -4837.94210099  -0.0000063510  0.000449  0.002606  0.000529  0.000014
 32  -4837.94210120  -0.0000002137  0.000387  0.001640  0.000269  0.000008
 33  -4837.94210273  -0.0000015295  0.000054  0.000178  0.000037  0.000001
 34  -4837.94210275  -0.0000000141  0.000015  0.000139  0.000029  0.000001
 35  -4837.94210275  -0.0000000041  0.000004  0.000068  0.000011  0.000000
 36  -4837.94210275  -0.0000000005  0.000002  0.000039  0.000006  0.000000
                  ***Gradient check signals convergence***
              ***Rediagonalizing the Fockian in SOSCF/NRSCF***

               *****************************************************
               *                     SUCCESS                       *
               *           SCF CONVERGED AFTER  37 CYCLES          *
               *****************************************************


----------------
TOTAL SCF ENERGY
----------------

Total Energy       :        -4837.94210275 Eh         -131647.09742 eV

Components:
Nuclear Repulsion  :            0.00000000 Eh               0.00000 eV
Electronic Energy  :        -4837.94210275 Eh         -131647.09742 eV
One Electron Energy:        -6645.43806789 Eh         -180831.56313 eV
Two Electron Energy:         1807.49596513 Eh           49184.46570 eV

Virial components:
Potential Energy   :        -9450.33996596 Eh         -257156.82407 eV
Kinetic Energy     :         4612.39786321 Eh          125509.72665 eV
Virial Ratio       :            2.04889956


DFT components:
N(Alpha)           :       23.999999974668 electrons
N(Beta)            :       20.999999975031 electrons
N(Total)           :       44.999999949699 electrons
E(X)               :     -134.798229448153 Eh       
E(C)               :       -2.318913557973 Eh       
E(XC)              :     -137.117143006125 Eh       
DFET-embed. en.    :        0.000000000000 Eh       

---------------
SCF CONVERGENCE
---------------

  Last Energy change         ...   -6.3665e-11  Tolerance :   1.0000e-09
  Last MAX-Density change    ...    2.0501e-06  Tolerance :   1.0000e-08
  Last RMS-Density change    ...    5.5357e-08  Tolerance :   1.0000e-09
  Last Orbital Gradient      ...    4.1130e-07  Tolerance :   2.0000e-06
  Last Orbital Rotation      ...    1.4174e-05  Tolerance :   2.0000e-06

             **** THE GBW FILE WAS UPDATED (Rh_sapporo-qzp-2012-diffuse_pbe.gbw) ****
             **** DENSITY Rh_sapporo-qzp-2012-diffuse_pbe.scfp WAS UPDATED ****
             **** ENERGY FILE WAS UPDATED (Rh_sapporo-qzp-2012-diffuse_pbe.en.tmp) ****
----------------------
UHF SPIN CONTAMINATION
----------------------

Warning: in a DFT calculation there is little theoretical justification to 
         calculate <S**2> as in Hartree-Fock theory. We will do it anyways
         but you should keep in mind that the values have only limited relevance

Expectation value of <S**2>     :     3.750720
Ideal value S*(S+1) for S=1.5   :     3.750000
Deviation                       :     0.000720

             **** THE GBW FILE WAS UPDATED (Rh_sapporo-qzp-2012-diffuse_pbe.gbw) ****
             **** DENSITY Rh_sapporo-qzp-2012-diffuse_pbe.scfp WAS UPDATED ****
----------------
ORBITAL ENERGIES
----------------
                 SPIN UP ORBITALS
  NO   OCC          E(Eh)            E(eV) 
   0   1.0000    -869.603533    -23663.1152 
   1   1.0000    -123.216889     -3352.9020 
   2   1.0000    -111.448552     -3032.6693 
   3   1.0000    -111.448552     -3032.6693 
   4   1.0000    -111.448552     -3032.6693 
   5   1.0000     -21.848439      -594.5263 
   6   1.0000     -17.856228      -485.8927 
   7   1.0000     -17.856227      -485.8926 
   8   1.0000     -17.856227      -485.8926 
   9   1.0000     -11.100145      -302.0503 
  10   1.0000     -11.100145      -302.0503 
  11   1.0000     -11.090068      -301.7761 
  12   1.0000     -11.090068      -301.7761 
  13   1.0000     -11.090068      -301.7761 
  14   1.0000      -3.031951       -82.5036 
  15   1.0000      -1.884230       -51.2725 
  16   1.0000      -1.884229       -51.2725 
  17   1.0000      -1.884228       -51.2725 
  18   1.0000      -0.258728        -7.0404 
  19   1.0000      -0.258728        -7.0404 
  20   1.0000      -0.228420        -6.2156 
  21   1.0000      -0.228420        -6.2156 
  22   1.0000      -0.228419        -6.2156 
  23   1.0000      -0.173000        -4.7076 
  24   0.0000      -0.038801        -1.0558 
  25   0.0000      -0.038801        -1.0558 
  26   0.0000      -0.038800        -1.0558 
  27   0.0000       0.002713         0.0738 
  28   0.0000       0.046736         1.2718 
  29   0.0000       0.046736         1.2718 
  30   0.0000       0.047234         1.2853 
  31   0.0000       0.047234         1.2853 
  32   0.0000       0.047234         1.2853 
  33   0.0000       0.128364         3.4930 
  34   0.0000       0.166374         4.5273 
  35   0.0000       0.166374         4.5273 
  36   0.0000       0.166375         4.5273 
  37   0.0000       0.228576         6.2199 
  38   0.0000       0.228576         6.2199 
  39   0.0000       0.231563         6.3011 
  40   0.0000       0.231563         6.3011 
  41   0.0000       0.231563         6.3011 
  42   0.0000       0.382036        10.3957 
  43   0.0000       0.382036        10.3957 
  44   0.0000       0.382036        10.3957 
  45   0.0000       0.382748        10.4151 
  46   0.0000       0.382749        10.4151 
  47   0.0000       0.382749        10.4151 
  48   0.0000       0.384280        10.4568 
  49   0.0000       0.667700        18.1690 
  50   0.0000       0.805603        21.9216 
  51   0.0000       0.805603        21.9216 
  52   0.0000       0.805603        21.9216 
  53   0.0000       0.805873        21.9289 
  54   0.0000       0.806047        21.9337 
  55   0.0000       0.806047        21.9337 
  56   0.0000       0.807050        21.9609 
  57   0.0000       0.807050        21.9609 
  58   0.0000       0.807050        21.9609 
  59   0.0000       0.908488        24.7212 
  60   0.0000       0.908488        24.7212 
  61   0.0000       0.920757        25.0551 
  62   0.0000       0.920757        25.0551 
  63   0.0000       0.920758        25.0551 
  64   0.0000       0.964093        26.2343 
  65   0.0000       0.964093        26.2343 
  66   0.0000       0.964094        26.2343 
  67   0.0000       1.129852        30.7448 
  68   0.0000       1.129852        30.7448 
  69   0.0000       1.129852        30.7448 
  70   0.0000       1.139690        31.0126 
  71   0.0000       1.139691        31.0126 
  72   0.0000       1.139692        31.0126 
  73   0.0000       1.152903        31.3721 
  74   0.0000       2.438999        66.3685 
  75   0.0000       2.438999        66.3685 
  76   0.0000       2.438999        66.3685 
  77   0.0000       2.440330        66.4048 
  78   0.0000       2.440330        66.4048 
  79   0.0000       2.440330        66.4048 
  80   0.0000       2.445769        66.5528 
  81   0.0000       2.445769        66.5528 
  82   0.0000       2.446916        66.5840 
  83   0.0000       2.446916        66.5840 
  84   0.0000       2.446917        66.5840 
  85   0.0000       2.509866        68.2969 
  86   0.0000       2.514373        68.4196 
  87   0.0000       2.514373        68.4196 
  88   0.0000       2.514373        68.4196 
  89   0.0000       2.518149        68.5223 
  90   0.0000       2.518149        68.5223 
  91   0.0000       2.529263        68.8247 
  92   0.0000       2.529263        68.8248 
  93   0.0000       2.529264        68.8248 
  94   0.0000       2.761452        75.1429 
  95   0.0000       2.761452        75.1429 
  96   0.0000       2.761452        75.1429 
  97   0.0000       2.776969        75.5652 
  98   0.0000       2.776970        75.5652 
  99   0.0000       2.776971        75.5652 
 100   0.0000       2.796828        76.1056 
 101   0.0000       2.903659        79.0126 
 102   0.0000       3.364423        91.5506 
 103   0.0000       3.364423        91.5506 
 104   0.0000       3.389589        92.2354 
 105   0.0000       3.389589        92.2354 
 106   0.0000       3.389590        92.2354 
 107   0.0000       3.774549       102.7107 
 108   0.0000       3.774550       102.7107 
 109   0.0000       3.774551       102.7108 
 110   0.0000       6.597014       179.5139 
 111   0.0000       6.606921       179.7835 
 112   0.0000       6.606921       179.7835 
 113   0.0000       6.606921       179.7835 
 114   0.0000       6.614158       179.9804 
 115   0.0000       6.614158       179.9804 
 116   0.0000       6.635783       180.5688 
 117   0.0000       6.635784       180.5689 
 118   0.0000       6.635784       180.5689 
 119   0.0000       7.350979       200.0303 
 120   0.0000       7.350979       200.0303 
 121   0.0000       7.350980       200.0303 
 122   0.0000       7.358085       200.2237 
 123   0.0000       7.358086       200.2237 
 124   0.0000       7.358086       200.2237 
 125   0.0000       7.377330       200.7474 
 126   0.0000       7.377330       200.7474 
 127   0.0000       7.380854       200.8433 
 128   0.0000       7.380855       200.8433 
 129   0.0000       7.380855       200.8433 
 130   0.0000       8.150150       221.7769 
 131   0.0000       8.150151       221.7769 
 132   0.0000       8.150151       221.7769 
 133   0.0000       8.163351       222.1361 
 134   0.0000       8.163352       222.1361 
 135   0.0000       8.163352       222.1361 
 136   0.0000       8.180126       222.5925 
 137   0.0000      10.999426       299.3096 
 138   0.0000      12.232161       332.8540 
 139   0.0000      12.232161       332.8540 
 140   0.0000      12.255362       333.4853 
 141   0.0000      12.255362       333.4854 
 142   0.0000      12.255362       333.4854 
 143   0.0000      12.931905       351.8950 
 144   0.0000      12.931906       351.8951 
 145   0.0000      12.931907       351.8951 
 146   0.0000      18.704302       508.9699 
 147   0.0000      44.051012      1198.6890 
 148   0.0000      44.051013      1198.6890 
 149   0.0000      44.051013      1198.6890 

                 SPIN DOWN ORBITALS
  NO   OCC          E(Eh)            E(eV) 
   0   1.0000    -869.603129    -23663.1042 
   1   1.0000    -123.206424     -3352.6172 
   2   1.0000    -111.440868     -3032.4602 
   3   1.0000    -111.440868     -3032.4602 
   4   1.0000    -111.440868     -3032.4602 
   5   1.0000     -21.842500      -594.3646 
   6   1.0000     -17.849371      -485.7061 
   7   1.0000     -17.849371      -485.7061 
   8   1.0000     -17.849371      -485.7061 
   9   1.0000     -11.084650      -301.6287 
  10   1.0000     -11.084650      -301.6287 
  11   1.0000     -11.084650      -301.6287 
  12   1.0000     -11.083330      -301.5927 
  13   1.0000     -11.083330      -301.5927 
  14   1.0000      -2.980803       -81.1118 
  15   1.0000      -1.829529       -49.7840 
  16   1.0000      -1.829529       -49.7840 
  17   1.0000      -1.829528       -49.7840 
  18   1.0000      -0.193712        -5.2712 
  19   1.0000      -0.193711        -5.2712 
  20   1.0000      -0.193711        -5.2711 
  21   0.0000      -0.163109        -4.4384 
  22   0.0000      -0.163107        -4.4384 
  23   0.0000      -0.129079        -3.5124 
  24   0.0000      -0.005344        -0.1454 
  25   0.0000      -0.005337        -0.1452 
  26   0.0000      -0.005334        -0.1451 
  27   0.0000       0.019547         0.5319 
  28   0.0000       0.067740         1.8433 
  29   0.0000       0.067741         1.8433 
  30   0.0000       0.067742         1.8433 
  31   0.0000       0.072338         1.9684 
  32   0.0000       0.072341         1.9685 
  33   0.0000       0.154932         4.2159 
  34   0.0000       0.204122         5.5544 
  35   0.0000       0.204126         5.5546 
  36   0.0000       0.204128         5.5546 
  37   0.0000       0.254785         6.9331 
  38   0.0000       0.254786         6.9331 
  39   0.0000       0.254786         6.9331 
  40   0.0000       0.265818         7.2333 
  41   0.0000       0.265829         7.2336 
  42   0.0000       0.407611        11.0917 
  43   0.0000       0.414250        11.2723 
  44   0.0000       0.414251        11.2723 
  45   0.0000       0.414253        11.2724 
  46   0.0000       0.422375        11.4934 
  47   0.0000       0.422403        11.4942 
  48   0.0000       0.422415        11.4945 
  49   0.0000       0.709329        19.3018 
  50   0.0000       0.835278        22.7291 
  51   0.0000       0.835280        22.7291 
  52   0.0000       0.835280        22.7291 
  53   0.0000       0.843201        22.9447 
  54   0.0000       0.843206        22.9448 
  55   0.0000       0.843212        22.9450 
  56   0.0000       0.843470        22.9520 
  57   0.0000       0.843486        22.9524 
  58   0.0000       0.852092        23.1866 
  59   0.0000       0.955195        25.9922 
  60   0.0000       0.955196        25.9922 
  61   0.0000       0.955196        25.9922 
  62   0.0000       0.973547        26.4916 
  63   0.0000       0.973554        26.4918 
  64   0.0000       1.011779        27.5319 
  65   0.0000       1.011783        27.5320 
  66   0.0000       1.011785        27.5321 
  67   0.0000       1.174357        31.9559 
  68   0.0000       1.190561        32.3968 
  69   0.0000       1.190561        32.3968 
  70   0.0000       1.190562        32.3968 
  71   0.0000       1.208381        32.8817 
  72   0.0000       1.208386        32.8818 
  73   0.0000       1.208387        32.8819 
  74   0.0000       2.488383        67.7124 
  75   0.0000       2.488388        67.7125 
  76   0.0000       2.488392        67.7126 
  77   0.0000       2.489404        67.7401 
  78   0.0000       2.489405        67.7402 
  79   0.0000       2.501397        68.0665 
  80   0.0000       2.501398        68.0665 
  81   0.0000       2.501403        68.0666 
  82   0.0000       2.506127        68.1952 
  83   0.0000       2.506156        68.1960 
  84   0.0000       2.506161        68.1961 
  85   0.0000       2.566139        69.8282 
  86   0.0000       2.566140        69.8282 
  87   0.0000       2.566140        69.8282 
  88   0.0000       2.583800        70.3088 
  89   0.0000       2.583801        70.3088 
  90   0.0000       2.588801        70.4449 
  91   0.0000       2.588803        70.4449 
  92   0.0000       2.588804        70.4450 
  93   0.0000       2.601663        70.7948 
  94   0.0000       2.809845        76.4598 
  95   0.0000       2.822958        76.8166 
  96   0.0000       2.822958        76.8166 
  97   0.0000       2.822959        76.8166 
  98   0.0000       2.837998        77.2259 
  99   0.0000       2.838001        77.2259 
 100   0.0000       2.838003        77.2260 
 101   0.0000       2.953097        80.3579 
 102   0.0000       3.421781        93.1114 
 103   0.0000       3.421782        93.1114 
 104   0.0000       3.421782        93.1114 
 105   0.0000       3.449967        93.8784 
 106   0.0000       3.449970        93.8785 
 107   0.0000       3.828364       104.1751 
 108   0.0000       3.828366       104.1751 
 109   0.0000       3.828366       104.1751 
 110   0.0000       6.663523       181.3237 
 111   0.0000       6.663524       181.3237 
 112   0.0000       6.663524       181.3237 
 113   0.0000       6.680836       181.7948 
 114   0.0000       6.680836       181.7948 
 115   0.0000       6.683950       181.8795 
 116   0.0000       6.683951       181.8795 
 117   0.0000       6.683952       181.8796 
 118   0.0000       6.700951       182.3421 
 119   0.0000       7.417909       201.8516 
 120   0.0000       7.417910       201.8516 
 121   0.0000       7.417911       201.8516 
 122   0.0000       7.418355       201.8637 
 123   0.0000       7.418356       201.8637 
 124   0.0000       7.437469       202.3838 
 125   0.0000       7.437470       202.3838 
 126   0.0000       7.437473       202.3839 
 127   0.0000       7.451874       202.7758 
 128   0.0000       7.451883       202.7760 
 129   0.0000       7.451885       202.7761 
 130   0.0000       8.185920       222.7502 
 131   0.0000       8.194144       222.9740 
 132   0.0000       8.194144       222.9740 
 133   0.0000       8.194145       222.9740 
 134   0.0000       8.204536       223.2568 
 135   0.0000       8.204538       223.2568 
 136   0.0000       8.204538       223.2568 
 137   0.0000      11.052393       300.7509 
 138   0.0000      12.272016       333.9385 
 139   0.0000      12.272017       333.9386 
 140   0.0000      12.272017       333.9386 
 141   0.0000      12.284901       334.2891 
 142   0.0000      12.284901       334.2892 
 143   0.0000      12.968499       352.8908 
 144   0.0000      12.968499       352.8908 
 145   0.0000      12.968499       352.8908 
 146   0.0000      18.738177       509.8917 
 147   0.0000      44.070708      1199.2249 
 148   0.0000      44.070708      1199.2249 
 149   0.0000      44.070709      1199.2249 

                    ********************************
                    * MULLIKEN POPULATION ANALYSIS *
                    ********************************

--------------------------------------------
MULLIKEN ATOMIC CHARGES AND SPIN POPULATIONS
--------------------------------------------
   0 Rh:   -0.000000    3.000000
Sum of atomic charges         :   -0.0000000
Sum of atomic spin populations:    3.0000000

-----------------------------------------------------
MULLIKEN REDUCED ORBITAL CHARGES AND SPIN POPULATIONS
-----------------------------------------------------
CHARGE
  0 Rhs       :     8.999957  s :     8.999957
      pz      :     5.999928  p :    17.999783
      px      :     5.999928
      py      :     5.999928
      dz2     :     3.589729  d :    17.999894
      dxz     :     3.871907
      dyz     :     3.341712
      dx2y2   :     3.679476
      dxy     :     3.517070
      f0      :     0.000017  f :     0.000183
      f+1     :     0.000023
      f-1     :     0.000044
      f+2     :     0.000019
      f-2     :     0.000027
      f+3     :     0.000018
      f-3     :     0.000036
      g0      :     0.000014  g :     0.000149
      g+1     :     0.000013
      g-1     :     0.000022
      g+2     :     0.000019
      g-2     :     0.000016
      g+3     :     0.000023
      g-3     :     0.000008
      g+4     :     0.000007
      g-4     :     0.000027
      h0      :     0.000001  h :     0.000034
      h+1     :     0.000001
      h-1     :     0.000005
      h+2     :     0.000004
      h-2     :     0.000005
      h+3     :     0.000003
      h-3     :     0.000005
      h+4     :     0.000001
      h-4     :     0.000002
      h+5     :     0.000004
      h-5     :     0.000004

SPIN
  0 Rhs       :     0.999979  s :     0.999979
      pz      :    -0.000008  p :    -0.000025
      px      :    -0.000008
      py      :    -0.000008
      dz2     :     0.410240  d :     1.999954
      dxz     :     0.128073
      dyz     :     0.658247
      dx2y2   :     0.320497
      dxy     :     0.482897
      f0      :     0.000002  f :     0.000026
      f+1     :     0.000003
      f-1     :     0.000006
      f+2     :     0.000003
      f-2     :     0.000004
      f+3     :     0.000003
      f-3     :     0.000005
      g0      :     0.000009  g :     0.000067
      g+1     :     0.000002
      g-1     :     0.000014
      g+2     :     0.000005
      g-2     :     0.000004
      g+3     :     0.000018
      g-3     :     0.000001
      g+4     :    -0.000000
      g-4     :     0.000014
      h0      :     0.000000  h :    -0.000001
      h+1     :    -0.000000
      h-1     :    -0.000000
      h+2     :    -0.000000
      h-2     :     0.000000
      h+3     :    -0.000000
      h-3     :     0.000000
      h+4     :     0.000000
      h-4     :    -0.000000
      h+5     :     0.000000
      h-5     :    -0.000000


                     *******************************
                     * LOEWDIN POPULATION ANALYSIS *
                     *******************************

-------------------------------------------
LOEWDIN ATOMIC CHARGES AND SPIN POPULATIONS
-------------------------------------------
   0 Rh:   -0.000000    3.000000

----------------------------------------------------
LOEWDIN REDUCED ORBITAL CHARGES AND SPIN POPULATIONS
----------------------------------------------------
CHARGE
  0 Rhs       :     8.999957  s :     8.999957
      pz      :     5.999928  p :    17.999783
      px      :     5.999928
      py      :     5.999928
      dz2     :     3.589729  d :    17.999894
      dxz     :     3.871907
      dyz     :     3.341712
      dx2y2   :     3.679476
      dxy     :     3.517070
      f0      :     0.000017  f :     0.000183
      f+1     :     0.000023
      f-1     :     0.000044
      f+2     :     0.000019
      f-2     :     0.000027
      f+3     :     0.000018
      f-3     :     0.000036
      g0      :     0.000014  g :     0.000149
      g+1     :     0.000013
      g-1     :     0.000022
      g+2     :     0.000019
      g-2     :     0.000016
      g+3     :     0.000023
      g-3     :     0.000008
      g+4     :     0.000007
      g-4     :     0.000027
      h0      :     0.000001  h :     0.000034
      h+1     :     0.000001
      h-1     :     0.000005
      h+2     :     0.000004
      h-2     :     0.000005
      h+3     :     0.000003
      h-3     :     0.000005
      h+4     :     0.000001
      h-4     :     0.000002
      h+5     :     0.000004
      h-5     :     0.000004

SPIN
  0 Rhs       :     0.999979  s :     0.999979
      pz      :    -0.000008  p :    -0.000025
      px      :    -0.000008
      py      :    -0.000008
      dz2     :     0.410240  d :     1.999954
      dxz     :     0.128073
      dyz     :     0.658247
      dx2y2   :     0.320497
      dxy     :     0.482897
      f0      :     0.000002  f :     0.000026
      f+1     :     0.000003
      f-1     :     0.000006
      f+2     :     0.000003
      f-2     :     0.000004
      f+3     :     0.000003
      f-3     :     0.000005
      g0      :     0.000009  g :     0.000067
      g+1     :     0.000002
      g-1     :     0.000014
      g+2     :     0.000005
      g-2     :     0.000004
      g+3     :     0.000018
      g-3     :     0.000001
      g+4     :    -0.000000
      g-4     :     0.000014
      h0      :     0.000000  h :    -0.000001
      h+1     :    -0.000000
      h-1     :    -0.000000
      h+2     :    -0.000000
      h-2     :     0.000000
      h+3     :    -0.000000
      h-3     :     0.000000
      h+4     :     0.000000
      h-4     :    -0.000000
      h+5     :     0.000000
      h-5     :    -0.000000


                      *****************************
                      * MAYER POPULATION ANALYSIS *
                      *****************************

  NA   - Mulliken gross atomic population
  ZA   - Total nuclear charge
  QA   - Mulliken gross atomic charge
  VA   - Mayer's total valence
  BVA  - Mayer's bonded valence
  FA   - Mayer's free valence

  ATOM       NA         ZA         QA         VA         BVA        FA
  0 Rh    45.0000    45.0000    -0.0000     3.0014     0.0000     3.0014

  Mayer bond orders larger than 0.100000


-------
TIMINGS
-------

Total SCF time: 0 days 0 hours 1 min 7 sec 

Total time                  ....      67.180 sec
Sum of individual times     ....      60.175 sec  ( 89.6%)

Fock matrix formation       ....      54.913 sec  ( 81.7%)
  XC integration            ....      19.017 sec  ( 34.6% of F)
    Basis function eval.    ....       0.242 sec  (  1.3% of XC)
    Density eval.           ....       0.385 sec  (  2.0% of XC)
    XC-Functional eval.     ....       0.175 sec  (  0.9% of XC)
    XC-Potential eval.      ....       0.356 sec  (  1.9% of XC)
Diagonalization             ....       1.760 sec  (  2.6%)
Density matrix formation    ....       0.021 sec  (  0.0%)
Population analysis         ....       0.071 sec  (  0.1%)
Initial guess               ....       0.534 sec  (  0.8%)
Orbital Transformation      ....       0.000 sec  (  0.0%)
Orbital Orthonormalization  ....       0.000 sec  (  0.0%)
DIIS solution               ....       1.674 sec  (  2.5%)
SOSCF solution              ....       0.127 sec  (  0.2%)
Grid generation             ....       1.075 sec  (  1.6%)

Maximum memory used throughout the entire SCF-calculation: 234.1 MB

-------------------------   --------------------
FINAL SINGLE POINT ENERGY     -4837.942102750718
-------------------------   --------------------


                            ***************************************
                            *     ORCA property calculations      *
                            ***************************************

                                    ---------------------
                                    Active property flags
                                    ---------------------
   (+) Dipole Moment


------------------------------------------------------------------------------
                       ORCA ELECTRIC PROPERTIES CALCULATION
------------------------------------------------------------------------------

Dipole Moment Calculation                       ... on
Quadrupole Moment Calculation                   ... off
Polarizability Calculation                      ... off
GBWName                                         ... Rh_sapporo-qzp-2012-diffuse_pbe.gbw
Electron density                                ... Rh_sapporo-qzp-2012-diffuse_pbe.scfp
The origin for moment calculation is the CENTER OF MASS  = ( 0.000000,  0.000000  0.000000)

-------------
DIPOLE MOMENT
-------------
                                X             Y             Z
Electronic contribution:      0.00000       0.00000       0.00000
Nuclear contribution   :      0.00000       0.00000       0.00000
                        -----------------------------------------
Total Dipole Moment    :      0.00000       0.00000       0.00000
                        -----------------------------------------
Magnitude (a.u.)       :      0.00000
Magnitude (Debye)      :      0.00000



--------------------
Rotational spectrum 
--------------------
 
Rotational constants in cm-1:     0.000000     0.000000     0.000000 
Rotational constants in MHz :     0.000000     0.000000     0.000000 

 Dipole components along the rotational axes: 
x,y,z [a.u.] :     0.000000     0.000000     0.000000 
x,y,z [Debye]:     0.000000     0.000000     0.000000 

 

Timings for individual modules:

Sum of individual times         ...       79.445 sec (=   1.324 min)
GTO integral calculation        ...        5.894 sec (=   0.098 min)   7.4 %
Relativistic integrals          ...        3.835 sec (=   0.064 min)   4.8 %
SCF iterations                  ...       69.715 sec (=   1.162 min)  87.8 %
                             ****ORCA TERMINATED NORMALLY****
TOTAL RUN TIME: 0 days 0 hours 1 minutes 25 seconds 313 msec
