
                                 *****************
                                 * O   R   C   A *
                                 *****************

                                            #,                                       
                                            ###                                      
                                            ####                                     
                                            #####                                    
                                            ######                                   
                                           ########,                                 
                                     ,,################,,,,,                         
                               ,,#################################,,                 
                          ,,##########################################,,             
                       ,#########################################, ''#####,          
                    ,#############################################,,   '####,        
                  ,##################################################,,,,####,       
                ,###########''''           ''''###############################       
              ,#####''   ,,,,##########,,,,          '''####'''          '####       
            ,##' ,,,,###########################,,,                        '##       
           ' ,,###''''                  '''############,,,                           
         ,,##''                                '''############,,,,        ,,,,,,###''
      ,#''                                            '''#######################'''  
     '                                                          ''''####''''         
             ,#######,   #######,   ,#######,      ##                                
            ,#'     '#,  ##    ##  ,#'     '#,    #''#        ######   ,####,        
            ##       ##  ##   ,#'  ##            #'  '#       #        #'  '#        
            ##       ##  #######   ##           ,######,      #####,   #    #        
            '#,     ,#'  ##    ##  '#,     ,#' ,#      #,         ##   #,  ,#        
             '#######'   ##     ##  '#######'  #'      '#     #####' # '####'        



                  #######################################################
                  #                        -***-                        #
                  #          Department of theory and spectroscopy      #
                  #    Directorship and core code : Frank Neese         #
                  #        Max Planck Institute fuer Kohlenforschung    #
                  #                Kaiser Wilhelm Platz 1               #
                  #                 D-45470 Muelheim/Ruhr               #
                  #                      Germany                        #
                  #                                                     #
                  #                  All rights reserved                #
                  #                        -***-                        #
                  #######################################################


                         Program Version 5.0.1 -  RELEASE  -


 With contributions from (in alphabetic order):
   Daniel Aravena         : Magnetic Suceptibility
   Michael Atanasov       : Ab Initio Ligand Field Theory (pilot matlab implementation)
   Alexander A. Auer      : GIAO ZORA, VPT2 properties, NMR spectrum
   Ute Becker             : Parallelization
   Giovanni Bistoni       : ED, misc. LED, open-shell LED, HFLD
   Martin Brehm           : Molecular dynamics
   Dmytro Bykov           : SCF Hessian
   Vijay G. Chilkuri      : MRCI spin determinant printing, contributions to CSF-ICE
   Dipayan Datta          : RHF DLPNO-CCSD density
   Achintya Kumar Dutta   : EOM-CC, STEOM-CC
   Dmitry Ganyushin       : Spin-Orbit,Spin-Spin,Magnetic field MRCI
   Miquel Garcia          : C-PCM and meta-GGA Hessian, CC/C-PCM, Gaussian charge scheme
   Yang Guo               : DLPNO-NEVPT2, F12-NEVPT2, CIM, IAO-localization
   Andreas Hansen         : Spin unrestricted coupled pair/coupled cluster methods
   Benjamin Helmich-Paris : MC-RPA, TRAH-SCF, COSX integrals
   Lee Huntington         : MR-EOM, pCC
   Robert Izsak           : Overlap fitted RIJCOSX, COSX-SCS-MP3, EOM
   Marcus Kettner         : VPT2
   Christian Kollmar      : KDIIS, OOCD, Brueckner-CCSD(T), CCSD density, CASPT2, CASPT2-K
   Simone Kossmann        : Meta GGA functionals, TD-DFT gradient, OOMP2, MP2 Hessian
   Martin Krupicka        : Initial AUTO-CI
   Lucas Lang             : DCDCAS
   Marvin Lechner         : AUTO-CI (C++ implementation), FIC-MRCC
   Dagmar Lenk            : GEPOL surface, SMD
   Dimitrios Liakos       : Extrapolation schemes; Compound Job, initial MDCI parallelization
   Dimitrios Manganas     : Further ROCIS development; embedding schemes
   Dimitrios Pantazis     : SARC Basis sets
   Anastasios Papadopoulos: AUTO-CI, single reference methods and gradients
   Taras Petrenko         : DFT Hessian,TD-DFT gradient, ASA, ECA, R-Raman, ABS, FL, XAS/XES, NRVS
   Peter Pinski           : DLPNO-MP2, DLPNO-MP2 Gradient
   Christoph Reimann      : Effective Core Potentials
   Marius Retegan         : Local ZFS, SOC
   Christoph Riplinger    : Optimizer, TS searches, QM/MM, DLPNO-CCSD(T), (RO)-DLPNO pert. Triples
   Tobias Risthaus        : Range-separated hybrids, TD-DFT gradient, RPA, STAB
   Michael Roemelt        : Original ROCIS implementation
   Masaaki Saitow         : Open-shell DLPNO-CCSD energy and density
   Barbara Sandhoefer     : DKH picture change effects
   Avijit Sen             : IP-ROCIS
   Kantharuban Sivalingam : CASSCF convergence, NEVPT2, FIC-MRCI
   Bernardo de Souza      : ESD, SOC TD-DFT
   Georgi Stoychev        : AutoAux, RI-MP2 NMR, DLPNO-MP2 response
   Willem Van den Heuvel  : Paramagnetic NMR
   Boris Wezisla          : Elementary symmetry handling
   Frank Wennmohs         : Technical directorship


 We gratefully acknowledge several colleagues who have allowed us to
 interface, adapt or use parts of their codes:
   Stefan Grimme, W. Hujo, H. Kruse, P. Pracht,  : VdW corrections, initial TS optimization,
                  C. Bannwarth, S. Ehlert          DFT functionals, gCP, sTDA/sTD-DF
   Ed Valeev, F. Pavosevic, A. Kumar             : LibInt (2-el integral package), F12 methods
   Garnet Chan, S. Sharma, J. Yang, R. Olivares  : DMRG
   Ulf Ekstrom                                   : XCFun DFT Library
   Mihaly Kallay                                 : mrcc  (arbitrary order and MRCC methods)
   Jiri Pittner, Ondrej Demel                    : Mk-CCSD
   Frank Weinhold                                : gennbo (NPA and NBO analysis)
   Christopher J. Cramer and Donald G. Truhlar   : smd solvation model
   Lars Goerigk                                  : TD-DFT with DH, B97 family of functionals
   V. Asgeirsson, H. Jonsson                     : NEB implementation
   FAccTs GmbH                                   : IRC, NEB, NEB-TS, DLPNO-Multilevel, CI-OPT
                                                   MM, QMMM, 2- and 3-layer-ONIOM, Crystal-QMMM,
                                                   LR-CPCM, SF, NACMEs, symmetry and pop. for TD-DFT,
                                                   nearIR, NL-DFT gradient (VV10), updates on ESD,
                                                   ML-optimized integration grids
   S Lehtola, MJT Oliveira, MAL Marques          : LibXC Library
   Liviu Ungur et al                             : ANISO software


 Your calculation uses the libint2 library for the computation of 2-el integrals
 For citations please refer to: http://libint.valeyev.net

 Your ORCA version has been built with support for libXC version: 5.1.0
 For citations please refer to: https://tddft.org/programs/libxc/

 This ORCA versions uses:
   CBLAS   interface :  Fast vector & matrix operations
   LAPACKE interface :  Fast linear algebra routines
   SCALAPACK package :  Parallel linear algebra routines
   Shared memory     :  Shared parallel matrices
   BLAS/LAPACK       :  OpenBLAS 0.3.15  USE64BITINT DYNAMIC_ARCH NO_AFFINITY Haswell SINGLE_THREADED
        Core in use  :  Haswell
   Copyright (c) 2011-2014, The OpenBLAS Project


SCAN-COORDS

Reading of a custom basis requested
Basis file         : Ru_sarc-zora-tzvpp.basis
READING GTO-BASIS: RUTHENIUM
Basis successfully read

================================================================================

----- Orbital basis set information -----
================================================================================
                                        WARNINGS
                       Please study these warnings very carefully!
================================================================================


INFO   : the flag for use of the SHARK integral package has been found!

================================================================================
                                       INPUT FILE
================================================================================
NAME = Ru_sarc-zora-tzvpp_pbe.inp
|  1> !uks pbe nori verytightscf soscf notrah defgrid3
|  2> 
|  3> %pal
|  4>   nprocs 32
|  5> end
|  6> %coords
|  7>   charge 0
|  8>   mult 5
|  9>   units bohrs
| 10>   coords
| 11>     Ru 0.0 0.0 0.0
| 12>   end
| 13> end
| 14> %basis
| 15>   gtoname "Ru_sarc-zora-tzvpp.basis"
| 16>   delECP Ru
| 17> end
| 18> %rel
| 19>   method zora
| 20>   modelpot 1, 0, 0, 0
| 21>   c 137.035999084
| 22> endd                         ****END OF INPUT****
================================================================================

                       ****************************
                       * Single Point Calculation *
                       ****************************

---------------------------------
CARTESIAN COORDINATES (ANGSTROEM)
---------------------------------
  Ru     0.000000    0.000000    0.000000

----------------------------
CARTESIAN COORDINATES (A.U.)
----------------------------
  NO LB      ZA    FRAG     MASS         X           Y           Z
   0 Ru   44.0000    0   101.070    0.000000    0.000000    0.000000

--------------------------------
INTERNAL COORDINATES (ANGSTROEM)
--------------------------------
 Ru     0   0   0     0.000000000000     0.00000000     0.00000000

---------------------------
INTERNAL COORDINATES (A.U.)
---------------------------
 Ru     0   0   0     0.000000000000     0.00000000     0.00000000

---------------------
BASIS SET INFORMATION
---------------------
There are 1 groups of distinct atoms

 Group   1 Type Ru  : 22s15p10d2f1g contracted to 15s10p6d2f1g pattern {811111111111111/6111111111/511111/11/1}

Atom   0Ru   basis set group =>   1


           ************************************************************
           *        Program running with 32 parallel MPI-processes    *
           *              working on a common directory               *
           ************************************************************
------------------------------------------------------------------------------
                           ORCA GTO INTEGRAL CALCULATION
------------------------------------------------------------------------------
------------------------------------------------------------------------------
                   ___                                                        
                  /   \      - P O W E R E D   B Y -                         
                 /     \                                                     
                 |  |  |   _    _      __       _____    __    __             
                 |  |  |  | |  | |    /  \     |  _  \  |  |  /  |          
                  \  \/   | |  | |   /    \    | | | |  |  | /  /          
                 / \  \   | |__| |  /  /\  \   | |_| |  |  |/  /          
                |  |  |   |  __  | /  /__\  \  |    /   |      \           
                |  |  |   | |  | | |   __   |  |    \   |  |\   \          
                \     /   | |  | | |  |  |  |  | |\  \  |  | \   \       
                 \___/    |_|  |_| |__|  |__|  |_| \__\ |__|  \__/        
                                                                              
                      - O R C A' S   B I G   F R I E N D -                    
                                      &                                       
                       - I N T E G R A L  F E E D E R -                       
                                                                              
 v1 FN, 2020, v2 2021                                                         
------------------------------------------------------------------------------


Reading SHARK input file Ru_sarc-zora-tzvpp_pbe.SHARKINP.tmp ... ok
----------------------
SHARK INTEGRAL PACKAGE
----------------------

Number of atoms                             ...      1
Number of basis functions                   ...     98
Number of shells                            ...     34
Maximum angular momentum                    ...      4
Integral batch strategy                     ... SHARK/LIBINT Hybrid
RI-J (if used) integral strategy            ... SPLIT-RIJ (Revised 2003 algorithm where possible)
Printlevel                                  ...      1
Contraction scheme used                     ... SEGMENTED contraction
Coulomb Range Separation                    ... NOT USED
Exchange Range Separation                   ... NOT USED
Finite Nucleus Model                        ... NOT USED
Auxiliary Coulomb fitting basis             ... NOT available
Auxiliary J/K fitting basis                 ... NOT available
Auxiliary Correlation fitting basis         ... NOT available
Auxiliary 'external' fitting basis          ... NOT available
Integral threshold                          ...     1.000000e-12
Primitive cut-off                           ...     1.000000e-14
Primitive pair pre-selection threshold      ...     1.000000e-14

Calculating pre-screening integrals         ... done (  0.5 sec) Dimension = 34
Organizing shell pair data                  ... done (  0.1 sec)
Shell pair information
Total number of shell pairs                 ...       595
Shell pairs after pre-screening             ...       595
Total number of primitive shell pairs       ...      1328
Primitive shell pairs kept                  ...      1328
          la=0 lb=0:    120 shell pairs
          la=1 lb=0:    150 shell pairs
          la=1 lb=1:     55 shell pairs
          la=2 lb=0:     90 shell pairs
          la=2 lb=1:     60 shell pairs
          la=2 lb=2:     21 shell pairs
          la=3 lb=0:     30 shell pairs
          la=3 lb=1:     20 shell pairs
          la=3 lb=2:     12 shell pairs
          la=3 lb=3:      3 shell pairs
          la=4 lb=0:     15 shell pairs
          la=4 lb=1:     10 shell pairs
          la=4 lb=2:      6 shell pairs
          la=4 lb=3:      2 shell pairs
          la=4 lb=4:      1 shell pairs

Calculating one electron integrals          ... done (  0.1 sec)
Calculating Nuclear repulsion               ... done (  0.0 sec) ENN=      0.000000000000 Eh

SHARK setup successfully completed in   0.8 seconds

Maximum memory used throughout the entire GTOINT-calculation: 25.8 MB


           ************************************************************
           *        Program running with 32 parallel MPI-processes    *
           *              working on a common directory               *
           ************************************************************
------------------------------------------------------------------------------
                          ORCA RELATIVISTIC HAMILTONIAN
------------------------------------------------------------------------------

Relativistic Method            ... ZORA(MP)
Treatment of potential         ... Van Wuellen
Nucleus model                  ... Point Nucleus
Speed of light used            ... 137.03599908400000


            *************************************************
            *         ZERO ORDER REGULAR APPROXIMATION      *
            *                     ZORA(MP)                  *
            *            Programmed by FN according to      *
            *                   C. van Wuellen              *
            *       J. Chem. Phys. (1998) vol 109, 392-399  *
            *************************************************

Terms included in model potential: +V(e,N)
Basis function cutoff value   ... 1.000000e-12
Loading the fitted atomic densities  (DKH4)  ... done
Calculating the cutoffs                      ... done
Number of fit functions                      ... 29
Setting up the integration grid ... done

Maximum memory used throughout the entire REL-calculation: 23.6 MB


           ************************************************************
           *        Program running with 32 parallel MPI-processes    *
           *              working on a common directory               *
           ************************************************************
-------------------------------------------------------------------------------
                                 ORCA SCF
-------------------------------------------------------------------------------

------------
SCF SETTINGS
------------
Hamiltonian:
 Density Functional     Method          .... DFT(GTOs)
 Exchange Functional    Exchange        .... PBE
   PBE kappa parameter   XKappa         ....  0.804000
   PBE mue parameter    XMuePBE         ....  0.219520
 Correlation Functional Correlation     .... PBE
   PBE beta parameter  CBetaPBE         ....  0.066725
 LDA part of GGA corr.  LDAOpt          .... PW91-LDA
 Gradients option       PostSCFGGA      .... off
   Density functional embedding theory  .... OFF
   NL short-range parameter             ....  6.400000

Relativistic Settings:
 Scalar relativistic method             .... ZORA
 Speed of light used       Velit        ....       137.035999
Orbital energies will be scaled


General Settings:
 Integral files         IntName         .... Ru_sarc-zora-tzvpp_pbe
 Hartree-Fock type      HFTyp           .... UHF
 Total Charge           Charge          ....    0
 Multiplicity           Mult            ....    5
 Number of Electrons    NEL             ....   44
 Basis Dimension        Dim             ....   98
 Nuclear Repulsion      ENuc            ....      0.0000000000 Eh

Convergence Acceleration:
 DIIS                   CNVDIIS         .... on
   Start iteration      DIISMaxIt       ....    12
   Startup error        DIISStart       ....  0.200000
   # of expansion vecs  DIISMaxEq       ....     5
   Bias factor          DIISBfac        ....   1.050
   Max. coefficient     DIISMaxC        ....  10.000
 Trust-Rad. Augm. Hess. CNVTRAH         .... off
 SOSCF                  CNVSOSCF        .... on
   Start iteration      SOSCFMaxIt      ....   150
   Startup grad/error   SOSCFStart      ....  0.003300
 Level Shifting         CNVShift        .... on
   Level shift para.    LevelShift      ....    0.2500
   Turn off err/grad.   ShiftErr        ....    0.0010
 Zerner damping         CNVZerner       .... off
 Static damping         CNVDamp         .... on
   Fraction old density DampFac         ....    0.7000
   Max. Damping (<1)    DampMax         ....    0.9800
   Min. Damping (>=0)   DampMin         ....    0.0000
   Turn off err/grad.   DampErr         ....    0.1000
 Fernandez-Rico         CNVRico         .... off

SCF Procedure:
 Maximum # iterations   MaxIter         ....   125
 SCF integral mode      SCFMode         .... Direct
   Integral package                     .... SHARK and LIBINT hybrid scheme
 Reset frequency        DirectResetFreq ....    20
 Integral Threshold     Thresh          ....  1.000e-12 Eh
 Primitive CutOff       TCut            ....  1.000e-14 Eh

Convergence Tolerance:
 Convergence Check Mode ConvCheckMode   .... Total+1el-Energy
 Convergence forced     ConvForced      .... 0
 Energy Change          TolE            ....  1.000e-09 Eh
 1-El. energy change                    ....  1.000e-06 Eh
 Orbital Gradient       TolG            ....  2.000e-06
 Orbital Rotation angle TolX            ....  2.000e-06
 DIIS Error             TolErr          ....  1.000e-08


Diagonalization of the overlap matrix:
Smallest eigenvalue                        ... 7.219e-04
Time for diagonalization                   ...    0.003 sec
Threshold for overlap eigenvalues          ... 1.000e-08
Number of eigenvalues below threshold      ... 0
Time for construction of square roots      ...    0.021 sec
Total time needed                          ...    0.025 sec

Time for model grid setup =    0.194 sec

------------------------------
INITIAL GUESS: MODEL POTENTIAL
------------------------------
Loading ZORA relativistic densities                ... done
Calculating cut-offs                               ... done
Initializing the effective Hamiltonian             ... done
Setting up the integral package (SHARK)            ... done
Starting the Coulomb interaction                   ... done (   0.2 sec)
Reading the grid                                   ... done
Mapping shells                                     ... done
Starting the XC term evaluation                    ... done (   0.0 sec)
  promolecular density results
     # of electrons  =     44.000228320
     EX              =   -134.953178885
     EC              =     -2.245939429
     EX+EC           =   -137.199118314
Transforming the Hamiltonian                       ... done (   0.0 sec)
Diagonalizing the Hamiltonian                      ... done (   0.0 sec)
Back transforming the eigenvectors                 ... done (   0.0 sec)
Now organizing SCF variables                       ... done
                      ------------------
                      INITIAL GUESS DONE (   0.5 sec)
                      ------------------
-------------------
DFT GRID GENERATION
-------------------

General Integration Accuracy     IntAcc      ... 4.959
Radial Grid Type                 RadialGrid  ... OptM3 with GC (2021)
Angular Grid (max. ang.)         AngularGrid ... 6 (Lebedev-590)
Angular grid pruning method      GridPruning ... 4 (adaptive)
Weight generation scheme         WeightScheme... Becke
Basis function cutoff            BFCut       ... 1.0000e-12
Integration weight cutoff        WCut        ... 1.0000e-14
Angular grids for H and He will be reduced by one unit
Partially contracted basis set               ... off
Rotationally invariant grid construction     ... off

Total number of grid points                  ...    65888
Total number of batches                      ...     1030
Average number of points per batch           ...       63
Average number of grid points per atom       ...    65888
Time for grid setup =    4.157 sec

--------------
SCF ITERATIONS
--------------
ITER       Energy         Delta-E        Max-DP      RMS-DP      [F,P]     Damp
               ***  Starting incremental Fock matrix formation  ***
  0  -4597.9971478972   0.000000000000 0.03384413  0.00052189  2.0282977 0.7000
  1  -4598.0105211305  -0.013373233293 0.03488565  0.00044324  1.4004030 0.7000
  2  -4598.0173757207  -0.006854590264 0.02570056  0.00034165  0.9678323 0.7000
  3  -4598.0221757488  -0.004800028079 0.01675666  0.00025709  0.6694791 0.7000
  4  -4598.0257837866  -0.003608037755 0.01070174  0.00019865  0.4633529 0.7000
  5  -4598.0284800183  -0.002696231734 0.00707109  0.00016314  0.3207909 0.7000
  6  -4598.0305084176  -0.002028399259 0.00487474  0.00014078  0.2221393 0.7000
                               ***Turning on DIIS***
  7  -4598.0320512424  -0.001542824777 0.00343981  0.00012457  0.1538567 0.7000
  8  -4598.0332360912  -0.001184848832 0.00242032  0.00011215  0.1065861 0.7000
  9  -4598.0341559639  -0.000919872692 0.00753396  0.00034095  0.0743786 0.0000
 10  -4598.0366535287  -0.002497564802 0.00194245  0.00007882  0.0025028 0.0000
 11  -4598.0368730489  -0.000219520200 0.00188322  0.00007668  0.0022902 0.0000
 12  -4598.0370615027  -0.000188453779 0.00177175  0.00006602  0.0021119 0.0000
 13  -4598.0372090203  -0.000147517671 0.00165484  0.00007850  0.0018630 0.0000
 14  -4598.0373131861  -0.000104165811 0.00154569  0.00005648  0.0035102 0.0000
                      *** Initiating the SOSCF procedure ***
                           *** Shutting down DIIS ***
                      *** Re-Reading the Fockian *** 
                      *** Removing any level shift *** 
ITER      Energy       Delta-E        Grad      Rot      Max-DP    RMS-DP
 15  -4598.03743997  -0.0001267796  0.002339  0.002339  0.001423  0.000055
               *** Restarting incremental Fock matrix formation ***
 16  -4598.03751396  -0.0000739976  0.002448  0.048961  0.007915  0.000268
 17  -4598.03776932  -0.0002553608  0.003398  0.023655  0.003744  0.000136
 18  -4598.03787110  -0.0001017714  0.001486  0.014214  0.002354  0.000083
 19  -4598.03788923  -0.0000181315  0.000083  0.000619  0.000115  0.000004
 20  -4598.03788926  -0.0000000355  0.000041  0.000207  0.000084  0.000002
 21  -4598.03788927  -0.0000000068  0.000024  0.000186  0.000032  0.000001
 22  -4598.03788928  -0.0000000084  0.000002  0.000028  0.000004  0.000000
 23  -4598.03788928  -0.0000000001  0.000001  0.000029  0.000005  0.000000
 24  -4598.03788928  -0.0000000000  0.000001  0.000050  0.000009  0.000000
 25  -4598.03788928  -0.0000000001  0.000001  0.000070  0.000014  0.000000
 26  -4598.03788928  -0.0000000002  0.000001  0.000250  0.000045  0.000002
 27  -4598.03788928  -0.0000000003  0.000003  0.000666  0.000116  0.000004
 28  -4598.03788928  -0.0000000010  0.000006  0.001913  0.000326  0.000011
 29  -4598.03788928  -0.0000000026  0.000010  0.005330  0.000903  0.000030
 30  -4598.03788929  -0.0000000070  0.000019  0.015766  0.002681  0.000089
 31  -4598.03788931  -0.0000000189  0.000040  0.026951  0.004652  0.000151
 32  -4598.03788932  -0.0000000131  0.000077  0.005093  0.000885  0.000029
 33  -4598.03788935  -0.0000000332  0.000035  0.011958  0.002078  0.000066
 34  -4598.03788938  -0.0000000298  0.000010  0.008208  0.001438  0.000046
 35  -4598.03788939  -0.0000000039  0.000004  0.002236  0.000391  0.000012
               *** Restarting incremental Fock matrix formation ***
 36  -4598.03788939  -0.0000000005  0.000003  0.000021  0.000004  0.000000
 37  -4598.03788939  -0.0000000000  0.000001  0.000096  0.000016  0.000000
                  ***Gradient check signals convergence***
              ***Rediagonalizing the Fockian in SOSCF/NRSCF***

               *****************************************************
               *                     SUCCESS                       *
               *           SCF CONVERGED AFTER  38 CYCLES          *
               *****************************************************


----------------
TOTAL SCF ENERGY
----------------

Total Energy       :        -4598.03788939 Eh         -125118.97190 eV

Components:
Nuclear Repulsion  :            0.00000000 Eh               0.00000 eV
Electronic Energy  :        -4598.03788939 Eh         -125118.97190 eV
One Electron Energy:        -6318.75297942 Eh         -171942.00993 eV
Two Electron Energy:         1720.71509003 Eh           46823.03804 eV

Virial components:
Potential Energy   :        -9354.99066593 Eh         -254562.23771 eV
Kinetic Energy     :         4756.95277654 Eh          129443.26582 eV
Virial Ratio       :            1.96659313


DFT components:
N(Alpha)           :       23.999999999993 electrons
N(Beta)            :       20.000000000000 electrons
N(Total)           :       43.999999999993 electrons
E(X)               :     -132.385479663126 Eh       
E(C)               :       -2.231735094306 Eh       
E(XC)              :     -134.617214757432 Eh       
DFET-embed. en.    :        0.000000000000 Eh       

---------------
SCF CONVERGENCE
---------------

  Last Energy change         ...   -3.0923e-11  Tolerance :   1.0000e-09
  Last MAX-Density change    ...    9.7507e-06  Tolerance :   1.0000e-08
  Last RMS-Density change    ...    3.0306e-07  Tolerance :   1.0000e-09
  Last Orbital Gradient      ...    2.7194e-07  Tolerance :   2.0000e-06
  Last Orbital Rotation      ...    5.4572e-05  Tolerance :   2.0000e-06

             **** THE GBW FILE WAS UPDATED (Ru_sarc-zora-tzvpp_pbe.gbw) ****
             **** DENSITY Ru_sarc-zora-tzvpp_pbe.scfp WAS UPDATED ****
             **** ENERGY FILE WAS UPDATED (Ru_sarc-zora-tzvpp_pbe.en.tmp) ****
----------------------
UHF SPIN CONTAMINATION
----------------------

Warning: in a DFT calculation there is little theoretical justification to 
         calculate <S**2> as in Hartree-Fock theory. We will do it anyways
         but you should keep in mind that the values have only limited relevance

Expectation value of <S**2>     :     6.001091
Ideal value S*(S+1) for S=2.0   :     6.000000
Deviation                       :     0.001091

             **** THE GBW FILE WAS UPDATED (Ru_sarc-zora-tzvpp_pbe.gbw) ****
             **** DENSITY Ru_sarc-zora-tzvpp_pbe.scfp WAS UPDATED ****
----------------
ORBITAL ENERGIES
----------------
                 SPIN UP ORBITALS
  NO   OCC          E(Eh)            E(eV) 
   0   1.0000    -831.211168    -22618.4058 
   1   1.0000    -117.117154     -3186.9198 
   2   1.0000    -104.782581     -2851.2790 
   3   1.0000    -104.782580     -2851.2790 
   4   1.0000    -104.782580     -2851.2790 
   5   1.0000     -20.549099      -559.1694 
   6   1.0000     -16.524857      -449.6642 
   7   1.0000     -16.524856      -449.6642 
   8   1.0000     -16.524856      -449.6642 
   9   1.0000     -10.073807      -274.1222 
  10   1.0000     -10.073807      -274.1222 
  11   1.0000     -10.073807      -274.1222 
  12   1.0000     -10.064873      -273.8791 
  13   1.0000     -10.064872      -273.8791 
  14   1.0000      -2.849298       -77.5333 
  15   1.0000      -1.740722       -47.3675 
  16   1.0000      -1.740719       -47.3674 
  17   1.0000      -1.740719       -47.3674 
  18   1.0000      -0.228263        -6.2113 
  19   1.0000      -0.228262        -6.2113 
  20   1.0000      -0.228261        -6.2113 
  21   1.0000      -0.200851        -5.4654 
  22   1.0000      -0.200850        -5.4654 
  23   1.0000      -0.175112        -4.7651 
  24   0.0000      -0.039684        -1.0799 
  25   0.0000      -0.039683        -1.0798 
  26   0.0000      -0.039683        -1.0798 
  27   0.0000       0.087403         2.3783 
  28   0.0000       0.087840         2.3902 
  29   0.0000       0.087840         2.3902 
  30   0.0000       0.087840         2.3903 
  31   0.0000       0.089136         2.4255 
  32   0.0000       0.089137         2.4255 
  33   0.0000       0.169220         4.6047 
  34   0.0000       0.169221         4.6048 
  35   0.0000       0.169222         4.6048 
  36   0.0000       0.450805        12.2670 
  37   0.0000       0.450805        12.2670 
  38   0.0000       0.450806        12.2671 
  39   0.0000       0.457613        12.4523 
  40   0.0000       0.457615        12.4523 
  41   0.0000       0.672163        18.2905 
  42   0.0000       0.909360        24.7449 
  43   0.0000       0.909362        24.7450 
  44   0.0000       0.909362        24.7450 
  45   0.0000       1.119817        30.4718 
  46   0.0000       1.135835        30.9076 
  47   0.0000       1.135835        30.9077 
  48   0.0000       1.135837        30.9077 
  49   0.0000       1.149384        31.2763 
  50   0.0000       1.149386        31.2764 
  51   0.0000       1.149386        31.2764 
  52   0.0000       1.823207        49.6120 
  53   0.0000       1.823208        49.6120 
  54   0.0000       1.823209        49.6120 
  55   0.0000       1.842815        50.1455 
  56   0.0000       1.842816        50.1456 
  57   0.0000       2.680246        72.9332 
  58   0.0000       3.754665       102.1696 
  59   0.0000       3.774295       102.7038 
  60   0.0000       3.774295       102.7038 
  61   0.0000       3.774297       102.7039 
  62   0.0000       3.790301       103.1393 
  63   0.0000       3.790302       103.1394 
  64   0.0000       3.790303       103.1394 
  65   0.0000       3.887052       105.7721 
  66   0.0000       3.887054       105.7721 
  67   0.0000       3.887054       105.7721 
  68   0.0000       4.108055       111.7859 
  69   0.0000       4.108057       111.7859 
  70   0.0000       4.108057       111.7859 
  71   0.0000       4.127805       112.3233 
  72   0.0000       4.127805       112.3233 
  73   0.0000       4.134364       112.5018 
  74   0.0000       4.134365       112.5018 
  75   0.0000       4.134366       112.5018 
  76   0.0000       4.144019       112.7645 
  77   0.0000       7.701562       209.5702 
  78   0.0000       7.701563       209.5702 
  79   0.0000       7.701563       209.5702 
  80   0.0000       7.724237       210.1872 
  81   0.0000       7.724237       210.1872 
  82   0.0000      10.218791       278.0674 
  83   0.0000      17.823626       485.0055 
  84   0.0000      17.823627       485.0056 
  85   0.0000      17.823628       485.0056 
  86   0.0000      40.042570      1089.6137 
  87   0.0000      81.767749      2225.0136 
  88   0.0000      81.767749      2225.0136 
  89   0.0000      81.767750      2225.0136 
  90   0.0000     150.418288      4093.0897 
  91   0.0000     368.960922     10039.9371 
  92   0.0000     368.960922     10039.9371 
  93   0.0000     368.960922     10039.9371 
  94   0.0000     508.530259     13837.8118 
  95   0.0000    1549.314413     42158.9885 
  96   0.0000    4369.386435    118897.0495 
  97   0.0000   15584.084108    424064.4876 

                 SPIN DOWN ORBITALS
  NO   OCC          E(Eh)            E(eV) 
   0   1.0000    -831.210808    -22618.3960 
   1   1.0000    -117.103885     -3186.5587 
   2   1.0000    -104.772594     -2851.0072 
   3   1.0000    -104.772594     -2851.0072 
   4   1.0000    -104.772594     -2851.0072 
   5   1.0000     -20.541210      -558.9547 
   6   1.0000     -16.515915      -449.4209 
   7   1.0000     -16.515915      -449.4209 
   8   1.0000     -16.515914      -449.4209 
   9   1.0000     -10.057776      -273.6860 
  10   1.0000     -10.057776      -273.6860 
  11   1.0000     -10.056677      -273.6561 
  12   1.0000     -10.056676      -273.6561 
  13   1.0000     -10.056676      -273.6561 
  14   1.0000      -2.778270       -75.6006 
  15   1.0000      -1.663656       -45.2704 
  16   1.0000      -1.663655       -45.2704 
  17   1.0000      -1.663655       -45.2703 
  18   1.0000      -0.153113        -4.1664 
  19   1.0000      -0.153112        -4.1664 
  20   0.0000      -0.123165        -3.3515 
  21   0.0000      -0.123158        -3.3513 
  22   0.0000      -0.123153        -3.3512 
  23   0.0000      -0.120249        -3.2721 
  24   0.0000      -0.000620        -0.0169 
  25   0.0000      -0.000581        -0.0158 
  26   0.0000      -0.000534        -0.0145 
  27   0.0000       0.111736         3.0405 
  28   0.0000       0.111738         3.0405 
  29   0.0000       0.122879         3.3437 
  30   0.0000       0.122946         3.3455 
  31   0.0000       0.122999         3.3470 
  32   0.0000       0.125919         3.4264 
  33   0.0000       0.212448         5.7810 
  34   0.0000       0.212467         5.7815 
  35   0.0000       0.212489         5.7821 
  36   0.0000       0.491133        13.3644 
  37   0.0000       0.491134        13.3644 
  38   0.0000       0.508633        13.8406 
  39   0.0000       0.508679        13.8419 
  40   0.0000       0.508713        13.8428 
  41   0.0000       0.727324        19.7915 
  42   0.0000       0.970899        26.4195 
  43   0.0000       0.970919        26.4200 
  44   0.0000       0.970941        26.4207 
  45   0.0000       1.218311        33.1519 
  46   0.0000       1.218312        33.1519 
  47   0.0000       1.218312        33.1520 
  48   0.0000       1.233012        33.5520 
  49   0.0000       1.233014        33.5520 
  50   0.0000       1.233015        33.5520 
  51   0.0000       1.258987        34.2588 
  52   0.0000       1.885453        51.3058 
  53   0.0000       1.885454        51.3058 
  54   0.0000       1.911182        52.0059 
  55   0.0000       1.911197        52.0063 
  56   0.0000       1.911209        52.0067 
  57   0.0000       2.753718        74.9325 
  58   0.0000       3.842780       104.5674 
  59   0.0000       3.842780       104.5674 
  60   0.0000       3.842780       104.5674 
  61   0.0000       3.852607       104.8348 
  62   0.0000       3.852608       104.8348 
  63   0.0000       3.852608       104.8348 
  64   0.0000       3.869806       105.3028 
  65   0.0000       3.958954       107.7286 
  66   0.0000       3.958958       107.7287 
  67   0.0000       3.958963       107.7289 
  68   0.0000       4.210327       114.5688 
  69   0.0000       4.210328       114.5688 
  70   0.0000       4.210329       114.5689 
  71   0.0000       4.211052       114.5886 
  72   0.0000       4.220212       114.8378 
  73   0.0000       4.220213       114.8378 
  74   0.0000       4.242614       115.4474 
  75   0.0000       4.242615       115.4474 
  76   0.0000       4.242616       115.4474 
  77   0.0000       7.752666       210.9608 
  78   0.0000       7.752667       210.9608 
  79   0.0000       7.769107       211.4082 
  80   0.0000       7.769109       211.4082 
  81   0.0000       7.769110       211.4082 
  82   0.0000      10.271354       279.4978 
  83   0.0000      17.856615       485.9032 
  84   0.0000      17.856615       485.9032 
  85   0.0000      17.856615       485.9032 
  86   0.0000      40.068658      1090.3236 
  87   0.0000      81.784455      2225.4682 
  88   0.0000      81.784456      2225.4682 
  89   0.0000      81.784456      2225.4682 
  90   0.0000     150.435330      4093.5534 
  91   0.0000     368.969014     10040.1573 
  92   0.0000     368.969014     10040.1573 
  93   0.0000     368.969014     10040.1573 
  94   0.0000     508.540671     13838.0952 
  95   0.0000    1549.318226     42159.0923 
  96   0.0000    4369.387910    118897.0897 
  97   0.0000   15584.085580    424064.5276 

                    ********************************
                    * MULLIKEN POPULATION ANALYSIS *
                    ********************************

--------------------------------------------
MULLIKEN ATOMIC CHARGES AND SPIN POPULATIONS
--------------------------------------------
   0 Ru:   -0.000000    4.000000
Sum of atomic charges         :   -0.0000000
Sum of atomic spin populations:    4.0000000

-----------------------------------------------------
MULLIKEN REDUCED ORBITAL CHARGES AND SPIN POPULATIONS
-----------------------------------------------------
CHARGE
  0 Rus       :     8.999975  s :     8.999975
      pz      :     5.999939  p :    17.999818
      px      :     5.999939
      py      :     5.999939
      dz2     :     3.200968  d :    16.999917
      dxz     :     3.373689
      dyz     :     3.691631
      dx2y2   :     3.096715
      dxy     :     3.636914
      f0      :     0.000021  f :     0.000182
      f+1     :     0.000005
      f-1     :     0.000039
      f+2     :     0.000020
      f-2     :     0.000053
      f+3     :     0.000008
      f-3     :     0.000035
      g0      :     0.000007  g :     0.000108
      g+1     :     0.000018
      g-1     :     0.000009
      g+2     :     0.000021
      g-2     :     0.000005
      g+3     :     0.000012
      g-3     :     0.000014
      g+4     :     0.000015
      g-4     :     0.000007

SPIN
  0 Rus       :     0.999995  s :     0.999995
      pz      :    -0.000005  p :    -0.000015
      px      :    -0.000005
      py      :    -0.000005
      dz2     :     0.799017  d :     2.999982
      dxz     :     0.626292
      dyz     :     0.308341
      dx2y2   :     0.903273
      dxy     :     0.363059
      f0      :     0.000002  f :     0.000015
      f+1     :     0.000000
      f-1     :     0.000003
      f+2     :     0.000002
      f-2     :     0.000004
      f+3     :     0.000001
      f-3     :     0.000003
      g0      :     0.000003  g :     0.000023
      g+1     :     0.000003
      g-1     :     0.000003
      g+2     :     0.000003
      g-2     :     0.000001
      g+3     :     0.000001
      g-3     :     0.000003
      g+4     :     0.000003
      g-4     :     0.000002


                     *******************************
                     * LOEWDIN POPULATION ANALYSIS *
                     *******************************

-------------------------------------------
LOEWDIN ATOMIC CHARGES AND SPIN POPULATIONS
-------------------------------------------
   0 Ru:   -0.000000    4.000000

----------------------------------------------------
LOEWDIN REDUCED ORBITAL CHARGES AND SPIN POPULATIONS
----------------------------------------------------
CHARGE
  0 Rus       :     8.999975  s :     8.999975
      pz      :     5.999939  p :    17.999818
      px      :     5.999939
      py      :     5.999939
      dz2     :     3.200968  d :    16.999917
      dxz     :     3.373689
      dyz     :     3.691631
      dx2y2   :     3.096715
      dxy     :     3.636914
      f0      :     0.000021  f :     0.000182
      f+1     :     0.000005
      f-1     :     0.000039
      f+2     :     0.000020
      f-2     :     0.000053
      f+3     :     0.000008
      f-3     :     0.000035
      g0      :     0.000007  g :     0.000108
      g+1     :     0.000018
      g-1     :     0.000009
      g+2     :     0.000021
      g-2     :     0.000005
      g+3     :     0.000012
      g-3     :     0.000014
      g+4     :     0.000015
      g-4     :     0.000007

SPIN
  0 Rus       :     0.999995  s :     0.999995
      pz      :    -0.000005  p :    -0.000015
      px      :    -0.000005
      py      :    -0.000005
      dz2     :     0.799017  d :     2.999982
      dxz     :     0.626292
      dyz     :     0.308341
      dx2y2   :     0.903273
      dxy     :     0.363059
      f0      :     0.000002  f :     0.000015
      f+1     :     0.000000
      f-1     :     0.000003
      f+2     :     0.000002
      f-2     :     0.000004
      f+3     :     0.000001
      f-3     :     0.000003
      g0      :     0.000003  g :     0.000023
      g+1     :     0.000003
      g-1     :     0.000003
      g+2     :     0.000003
      g-2     :     0.000001
      g+3     :     0.000001
      g-3     :     0.000003
      g+4     :     0.000003
      g-4     :     0.000002


                      *****************************
                      * MAYER POPULATION ANALYSIS *
                      *****************************

  NA   - Mulliken gross atomic population
  ZA   - Total nuclear charge
  QA   - Mulliken gross atomic charge
  VA   - Mayer's total valence
  BVA  - Mayer's bonded valence
  FA   - Mayer's free valence

  ATOM       NA         ZA         QA         VA         BVA        FA
  0 Ru    44.0000    44.0000    -0.0000     4.0022     0.0000     4.0022

  Mayer bond orders larger than 0.100000


-------
TIMINGS
-------

Total SCF time: 0 days 0 hours 0 min 21 sec 

Total time                  ....      21.390 sec
Sum of individual times     ....      20.455 sec  ( 95.6%)

Fock matrix formation       ....      15.018 sec  ( 70.2%)
  XC integration            ....       5.681 sec  ( 37.8% of F)
    Basis function eval.    ....       0.186 sec  (  3.3% of XC)
    Density eval.           ....       0.255 sec  (  4.5% of XC)
    XC-Functional eval.     ....       0.147 sec  (  2.6% of XC)
    XC-Potential eval.      ....       0.246 sec  (  4.3% of XC)
Diagonalization             ....       0.342 sec  (  1.6%)
Density matrix formation    ....       0.010 sec  (  0.0%)
Population analysis         ....       0.074 sec  (  0.3%)
Initial guess               ....       0.271 sec  (  1.3%)
Orbital Transformation      ....       0.000 sec  (  0.0%)
Orbital Orthonormalization  ....       0.000 sec  (  0.0%)
DIIS solution               ....       0.219 sec  (  1.0%)
SOSCF solution              ....       0.170 sec  (  0.8%)
Grid generation             ....       4.350 sec  ( 20.3%)

Maximum memory used throughout the entire SCF-calculation: 232.4 MB

-------------------------   --------------------
FINAL SINGLE POINT ENERGY     -4598.037889388421
-------------------------   --------------------


                            ***************************************
                            *     ORCA property calculations      *
                            ***************************************

                                    ---------------------
                                    Active property flags
                                    ---------------------
   (+) Dipole Moment


------------------------------------------------------------------------------
                       ORCA ELECTRIC PROPERTIES CALCULATION
------------------------------------------------------------------------------

Dipole Moment Calculation                       ... on
Quadrupole Moment Calculation                   ... off
Polarizability Calculation                      ... off
GBWName                                         ... Ru_sarc-zora-tzvpp_pbe.gbw
Electron density                                ... Ru_sarc-zora-tzvpp_pbe.scfp
The origin for moment calculation is the CENTER OF MASS  = ( 0.000000,  0.000000  0.000000)

-------------
DIPOLE MOMENT
-------------
                                X             Y             Z
Electronic contribution:      0.00000      -0.00000      -0.00000
Nuclear contribution   :      0.00000       0.00000       0.00000
                        -----------------------------------------
Total Dipole Moment    :      0.00000      -0.00000      -0.00000
                        -----------------------------------------
Magnitude (a.u.)       :      0.00000
Magnitude (Debye)      :      0.00000



--------------------
Rotational spectrum 
--------------------
 
Rotational constants in cm-1:     0.000000     0.000000     0.000000 
Rotational constants in MHz :     0.000000     0.000000     0.000000 

 Dipole components along the rotational axes: 
x,y,z [a.u.] :     0.000000    -0.000000    -0.000000 
x,y,z [Debye]:     0.000000    -0.000000    -0.000000 

 

Timings for individual modules:

Sum of individual times         ...       35.683 sec (=   0.595 min)
GTO integral calculation        ...        4.516 sec (=   0.075 min)  12.7 %
Relativistic integrals          ...        7.006 sec (=   0.117 min)  19.6 %
SCF iterations                  ...       24.161 sec (=   0.403 min)  67.7 %
                             ****ORCA TERMINATED NORMALLY****
TOTAL RUN TIME: 0 days 0 hours 0 minutes 41 seconds 35 msec
