
                                 *****************
                                 * O   R   C   A *
                                 *****************

                                            #,                                       
                                            ###                                      
                                            ####                                     
                                            #####                                    
                                            ######                                   
                                           ########,                                 
                                     ,,################,,,,,                         
                               ,,#################################,,                 
                          ,,##########################################,,             
                       ,#########################################, ''#####,          
                    ,#############################################,,   '####,        
                  ,##################################################,,,,####,       
                ,###########''''           ''''###############################       
              ,#####''   ,,,,##########,,,,          '''####'''          '####       
            ,##' ,,,,###########################,,,                        '##       
           ' ,,###''''                  '''############,,,                           
         ,,##''                                '''############,,,,        ,,,,,,###''
      ,#''                                            '''#######################'''  
     '                                                          ''''####''''         
             ,#######,   #######,   ,#######,      ##                                
            ,#'     '#,  ##    ##  ,#'     '#,    #''#        ######   ,####,        
            ##       ##  ##   ,#'  ##            #'  '#       #        #'  '#        
            ##       ##  #######   ##           ,######,      #####,   #    #        
            '#,     ,#'  ##    ##  '#,     ,#' ,#      #,         ##   #,  ,#        
             '#######'   ##     ##  '#######'  #'      '#     #####' # '####'        



                  #######################################################
                  #                        -***-                        #
                  #          Department of theory and spectroscopy      #
                  #    Directorship and core code : Frank Neese         #
                  #        Max Planck Institute fuer Kohlenforschung    #
                  #                Kaiser Wilhelm Platz 1               #
                  #                 D-45470 Muelheim/Ruhr               #
                  #                      Germany                        #
                  #                                                     #
                  #                  All rights reserved                #
                  #                        -***-                        #
                  #######################################################


                         Program Version 5.0.1 -  RELEASE  -


 With contributions from (in alphabetic order):
   Daniel Aravena         : Magnetic Suceptibility
   Michael Atanasov       : Ab Initio Ligand Field Theory (pilot matlab implementation)
   Alexander A. Auer      : GIAO ZORA, VPT2 properties, NMR spectrum
   Ute Becker             : Parallelization
   Giovanni Bistoni       : ED, misc. LED, open-shell LED, HFLD
   Martin Brehm           : Molecular dynamics
   Dmytro Bykov           : SCF Hessian
   Vijay G. Chilkuri      : MRCI spin determinant printing, contributions to CSF-ICE
   Dipayan Datta          : RHF DLPNO-CCSD density
   Achintya Kumar Dutta   : EOM-CC, STEOM-CC
   Dmitry Ganyushin       : Spin-Orbit,Spin-Spin,Magnetic field MRCI
   Miquel Garcia          : C-PCM and meta-GGA Hessian, CC/C-PCM, Gaussian charge scheme
   Yang Guo               : DLPNO-NEVPT2, F12-NEVPT2, CIM, IAO-localization
   Andreas Hansen         : Spin unrestricted coupled pair/coupled cluster methods
   Benjamin Helmich-Paris : MC-RPA, TRAH-SCF, COSX integrals
   Lee Huntington         : MR-EOM, pCC
   Robert Izsak           : Overlap fitted RIJCOSX, COSX-SCS-MP3, EOM
   Marcus Kettner         : VPT2
   Christian Kollmar      : KDIIS, OOCD, Brueckner-CCSD(T), CCSD density, CASPT2, CASPT2-K
   Simone Kossmann        : Meta GGA functionals, TD-DFT gradient, OOMP2, MP2 Hessian
   Martin Krupicka        : Initial AUTO-CI
   Lucas Lang             : DCDCAS
   Marvin Lechner         : AUTO-CI (C++ implementation), FIC-MRCC
   Dagmar Lenk            : GEPOL surface, SMD
   Dimitrios Liakos       : Extrapolation schemes; Compound Job, initial MDCI parallelization
   Dimitrios Manganas     : Further ROCIS development; embedding schemes
   Dimitrios Pantazis     : SARC Basis sets
   Anastasios Papadopoulos: AUTO-CI, single reference methods and gradients
   Taras Petrenko         : DFT Hessian,TD-DFT gradient, ASA, ECA, R-Raman, ABS, FL, XAS/XES, NRVS
   Peter Pinski           : DLPNO-MP2, DLPNO-MP2 Gradient
   Christoph Reimann      : Effective Core Potentials
   Marius Retegan         : Local ZFS, SOC
   Christoph Riplinger    : Optimizer, TS searches, QM/MM, DLPNO-CCSD(T), (RO)-DLPNO pert. Triples
   Tobias Risthaus        : Range-separated hybrids, TD-DFT gradient, RPA, STAB
   Michael Roemelt        : Original ROCIS implementation
   Masaaki Saitow         : Open-shell DLPNO-CCSD energy and density
   Barbara Sandhoefer     : DKH picture change effects
   Avijit Sen             : IP-ROCIS
   Kantharuban Sivalingam : CASSCF convergence, NEVPT2, FIC-MRCI
   Bernardo de Souza      : ESD, SOC TD-DFT
   Georgi Stoychev        : AutoAux, RI-MP2 NMR, DLPNO-MP2 response
   Willem Van den Heuvel  : Paramagnetic NMR
   Boris Wezisla          : Elementary symmetry handling
   Frank Wennmohs         : Technical directorship


 We gratefully acknowledge several colleagues who have allowed us to
 interface, adapt or use parts of their codes:
   Stefan Grimme, W. Hujo, H. Kruse, P. Pracht,  : VdW corrections, initial TS optimization,
                  C. Bannwarth, S. Ehlert          DFT functionals, gCP, sTDA/sTD-DF
   Ed Valeev, F. Pavosevic, A. Kumar             : LibInt (2-el integral package), F12 methods
   Garnet Chan, S. Sharma, J. Yang, R. Olivares  : DMRG
   Ulf Ekstrom                                   : XCFun DFT Library
   Mihaly Kallay                                 : mrcc  (arbitrary order and MRCC methods)
   Jiri Pittner, Ondrej Demel                    : Mk-CCSD
   Frank Weinhold                                : gennbo (NPA and NBO analysis)
   Christopher J. Cramer and Donald G. Truhlar   : smd solvation model
   Lars Goerigk                                  : TD-DFT with DH, B97 family of functionals
   V. Asgeirsson, H. Jonsson                     : NEB implementation
   FAccTs GmbH                                   : IRC, NEB, NEB-TS, DLPNO-Multilevel, CI-OPT
                                                   MM, QMMM, 2- and 3-layer-ONIOM, Crystal-QMMM,
                                                   LR-CPCM, SF, NACMEs, symmetry and pop. for TD-DFT,
                                                   nearIR, NL-DFT gradient (VV10), updates on ESD,
                                                   ML-optimized integration grids
   S Lehtola, MJT Oliveira, MAL Marques          : LibXC Library
   Liviu Ungur et al                             : ANISO software


 Your calculation uses the libint2 library for the computation of 2-el integrals
 For citations please refer to: http://libint.valeyev.net

 Your ORCA version has been built with support for libXC version: 5.1.0
 For citations please refer to: https://tddft.org/programs/libxc/

 This ORCA versions uses:
   CBLAS   interface :  Fast vector & matrix operations
   LAPACKE interface :  Fast linear algebra routines
   SCALAPACK package :  Parallel linear algebra routines
   Shared memory     :  Shared parallel matrices
   BLAS/LAPACK       :  OpenBLAS 0.3.15  USE64BITINT DYNAMIC_ARCH NO_AFFINITY Haswell SINGLE_THREADED
        Core in use  :  Haswell
   Copyright (c) 2011-2014, The OpenBLAS Project


SCAN-COORDS

Reading of a custom basis requested
Basis file         : Ru_sapporo-qzp-2012-diffuse.basis
READING GTO-BASIS: RUTHENIUM
Basis successfully read

================================================================================

----- Orbital basis set information -----
================================================================================
                                        WARNINGS
                       Please study these warnings very carefully!
================================================================================


INFO   : the flag for use of the SHARK integral package has been found!

================================================================================
                                       INPUT FILE
================================================================================
NAME = Ru_sapporo-qzp-2012-diffuse_pbe.inp
|  1> !uks pbe nori verytightscf soscf notrah defgrid3
|  2> 
|  3> %pal
|  4>   nprocs 32
|  5> end
|  6> %coords
|  7>   charge 0
|  8>   mult 5
|  9>   units bohrs
| 10>   coords
| 11>     Ru 0.0 0.0 0.0
| 12>   end
| 13> end
| 14> %basis
| 15>   gtoname "Ru_sapporo-qzp-2012-diffuse.basis"
| 16>   delECP Ru
| 17> end
| 18> %rel
| 19>   method zora
| 20>   modelpot 1, 0, 0, 0
| 21>   c 137.035999084
| 22> endd                         ****END OF INPUT****
================================================================================

                       ****************************
                       * Single Point Calculation *
                       ****************************

---------------------------------
CARTESIAN COORDINATES (ANGSTROEM)
---------------------------------
  Ru     0.000000    0.000000    0.000000

----------------------------
CARTESIAN COORDINATES (A.U.)
----------------------------
  NO LB      ZA    FRAG     MASS         X           Y           Z
   0 Ru   44.0000    0   101.070    0.000000    0.000000    0.000000

--------------------------------
INTERNAL COORDINATES (ANGSTROEM)
--------------------------------
 Ru     0   0   0     0.000000000000     0.00000000     0.00000000

---------------------------
INTERNAL COORDINATES (A.U.)
---------------------------
 Ru     0   0   0     0.000000000000     0.00000000     0.00000000

---------------------
BASIS SET INFORMATION
---------------------
There are 1 groups of distinct atoms

 Group   1 Type Ru  : 22s17p13d4f3g2h contracted to 11s9p7d4f3g2h pattern {74221111111/731111111/7111111/1111/111/11}

Atom   0Ru   basis set group =>   1


           ************************************************************
           *        Program running with 32 parallel MPI-processes    *
           *              working on a common directory               *
           ************************************************************
------------------------------------------------------------------------------
                           ORCA GTO INTEGRAL CALCULATION
------------------------------------------------------------------------------
------------------------------------------------------------------------------
                   ___                                                        
                  /   \      - P O W E R E D   B Y -                         
                 /     \                                                     
                 |  |  |   _    _      __       _____    __    __             
                 |  |  |  | |  | |    /  \     |  _  \  |  |  /  |          
                  \  \/   | |  | |   /    \    | | | |  |  | /  /          
                 / \  \   | |__| |  /  /\  \   | |_| |  |  |/  /          
                |  |  |   |  __  | /  /__\  \  |    /   |      \           
                |  |  |   | |  | | |   __   |  |    \   |  |\   \          
                \     /   | |  | | |  |  |  |  | |\  \  |  | \   \       
                 \___/    |_|  |_| |__|  |__|  |_| \__\ |__|  \__/        
                                                                              
                      - O R C A' S   B I G   F R I E N D -                    
                                      &                                       
                       - I N T E G R A L  F E E D E R -                       
                                                                              
 v1 FN, 2020, v2 2021                                                         
------------------------------------------------------------------------------


Reading SHARK input file Ru_sapporo-qzp-2012-diffuse_pbe.SHARKINP.tmp ... ok
----------------------
SHARK INTEGRAL PACKAGE
----------------------

Number of atoms                             ...      1
Number of basis functions                   ...    150
Number of shells                            ...     36
Maximum angular momentum                    ...      5
Integral batch strategy                     ... SHARK/LIBINT Hybrid
RI-J (if used) integral strategy            ... SPLIT-RIJ (Revised 2003 algorithm where possible)
Printlevel                                  ...      1
Contraction scheme used                     ... SEGMENTED contraction
Coulomb Range Separation                    ... NOT USED
Exchange Range Separation                   ... NOT USED
Finite Nucleus Model                        ... NOT USED
Auxiliary Coulomb fitting basis             ... NOT available
Auxiliary J/K fitting basis                 ... NOT available
Auxiliary Correlation fitting basis         ... NOT available
Auxiliary 'external' fitting basis          ... NOT available
Integral threshold                          ...     1.000000e-12
Primitive cut-off                           ...     1.000000e-14
Primitive pair pre-selection threshold      ...     1.000000e-14

Calculating pre-screening integrals         ... done (  0.8 sec) Dimension = 36
Organizing shell pair data                  ... done (  0.1 sec)
Shell pair information
Total number of shell pairs                 ...       666
Shell pairs after pre-screening             ...       666
Total number of primitive shell pairs       ...      1965
Primitive shell pairs kept                  ...      1965
          la=0 lb=0:     66 shell pairs
          la=1 lb=0:     99 shell pairs
          la=1 lb=1:     45 shell pairs
          la=2 lb=0:     77 shell pairs
          la=2 lb=1:     63 shell pairs
          la=2 lb=2:     28 shell pairs
          la=3 lb=0:     44 shell pairs
          la=3 lb=1:     36 shell pairs
          la=3 lb=2:     28 shell pairs
          la=3 lb=3:     10 shell pairs
          la=4 lb=0:     33 shell pairs
          la=4 lb=1:     27 shell pairs
          la=4 lb=2:     21 shell pairs
          la=4 lb=3:     12 shell pairs
          la=4 lb=4:      6 shell pairs
          la=5 lb=0:     22 shell pairs
          la=5 lb=1:     18 shell pairs
          la=5 lb=2:     14 shell pairs
          la=5 lb=3:      8 shell pairs
          la=5 lb=4:      6 shell pairs
          la=5 lb=5:      3 shell pairs

Calculating one electron integrals          ... done (  0.1 sec)
Calculating Nuclear repulsion               ... done (  0.0 sec) ENN=      0.000000000000 Eh

SHARK setup successfully completed in   1.4 seconds

Maximum memory used throughout the entire GTOINT-calculation: 39.4 MB


           ************************************************************
           *        Program running with 32 parallel MPI-processes    *
           *              working on a common directory               *
           ************************************************************
------------------------------------------------------------------------------
                          ORCA RELATIVISTIC HAMILTONIAN
------------------------------------------------------------------------------

Relativistic Method            ... ZORA(MP)
Treatment of potential         ... Van Wuellen
Nucleus model                  ... Point Nucleus
Speed of light used            ... 137.03599908400000


            *************************************************
            *         ZERO ORDER REGULAR APPROXIMATION      *
            *                     ZORA(MP)                  *
            *            Programmed by FN according to      *
            *                   C. van Wuellen              *
            *       J. Chem. Phys. (1998) vol 109, 392-399  *
            *************************************************

Terms included in model potential: +V(e,N)
Basis function cutoff value   ... 1.000000e-12
Loading the fitted atomic densities  (DKH4)  ... done
Calculating the cutoffs                      ... done
Number of fit functions                      ... 29
Setting up the integration grid ... done

Maximum memory used throughout the entire REL-calculation: 12.2 MB


           ************************************************************
           *        Program running with 32 parallel MPI-processes    *
           *              working on a common directory               *
           ************************************************************
-------------------------------------------------------------------------------
                                 ORCA SCF
-------------------------------------------------------------------------------

------------
SCF SETTINGS
------------
Hamiltonian:
 Density Functional     Method          .... DFT(GTOs)
 Exchange Functional    Exchange        .... PBE
   PBE kappa parameter   XKappa         ....  0.804000
   PBE mue parameter    XMuePBE         ....  0.219520
 Correlation Functional Correlation     .... PBE
   PBE beta parameter  CBetaPBE         ....  0.066725
 LDA part of GGA corr.  LDAOpt          .... PW91-LDA
 Gradients option       PostSCFGGA      .... off
   Density functional embedding theory  .... OFF
   NL short-range parameter             ....  6.400000

Relativistic Settings:
 Scalar relativistic method             .... ZORA
 Speed of light used       Velit        ....       137.035999
Orbital energies will be scaled


General Settings:
 Integral files         IntName         .... Ru_sapporo-qzp-2012-diffuse_pbe
 Hartree-Fock type      HFTyp           .... UHF
 Total Charge           Charge          ....    0
 Multiplicity           Mult            ....    5
 Number of Electrons    NEL             ....   44
 Basis Dimension        Dim             ....  150
 Nuclear Repulsion      ENuc            ....      0.0000000000 Eh

Convergence Acceleration:
 DIIS                   CNVDIIS         .... on
   Start iteration      DIISMaxIt       ....    12
   Startup error        DIISStart       ....  0.200000
   # of expansion vecs  DIISMaxEq       ....     5
   Bias factor          DIISBfac        ....   1.050
   Max. coefficient     DIISMaxC        ....  10.000
 Trust-Rad. Augm. Hess. CNVTRAH         .... off
 SOSCF                  CNVSOSCF        .... on
   Start iteration      SOSCFMaxIt      ....   150
   Startup grad/error   SOSCFStart      ....  0.003300
 Level Shifting         CNVShift        .... on
   Level shift para.    LevelShift      ....    0.2500
   Turn off err/grad.   ShiftErr        ....    0.0010
 Zerner damping         CNVZerner       .... off
 Static damping         CNVDamp         .... on
   Fraction old density DampFac         ....    0.7000
   Max. Damping (<1)    DampMax         ....    0.9800
   Min. Damping (>=0)   DampMin         ....    0.0000
   Turn off err/grad.   DampErr         ....    0.1000
 Fernandez-Rico         CNVRico         .... off

SCF Procedure:
 Maximum # iterations   MaxIter         ....   125
 SCF integral mode      SCFMode         .... Direct
   Integral package                     .... SHARK and LIBINT hybrid scheme
 Reset frequency        DirectResetFreq ....    20
 Integral Threshold     Thresh          ....  1.000e-12 Eh
 Primitive CutOff       TCut            ....  1.000e-14 Eh

Convergence Tolerance:
 Convergence Check Mode ConvCheckMode   .... Total+1el-Energy
 Convergence forced     ConvForced      .... 0
 Energy Change          TolE            ....  1.000e-09 Eh
 1-El. energy change                    ....  1.000e-06 Eh
 Orbital Gradient       TolG            ....  2.000e-06
 Orbital Rotation angle TolX            ....  2.000e-06
 DIIS Error             TolErr          ....  1.000e-08


Diagonalization of the overlap matrix:
Smallest eigenvalue                        ... 1.289e-04
Time for diagonalization                   ...    0.005 sec
Threshold for overlap eigenvalues          ... 1.000e-08
Number of eigenvalues below threshold      ... 0
Time for construction of square roots      ...    0.053 sec
Total time needed                          ...    0.060 sec

Time for model grid setup =    0.086 sec

------------------------------
INITIAL GUESS: MODEL POTENTIAL
------------------------------
Loading ZORA relativistic densities                ... done
Calculating cut-offs                               ... done
Initializing the effective Hamiltonian             ... done
Setting up the integral package (SHARK)            ... done
Starting the Coulomb interaction                   ... done (   0.2 sec)
Reading the grid                                   ... done
Mapping shells                                     ... done
Starting the XC term evaluation                    ... done (   0.0 sec)
  promolecular density results
     # of electrons  =     44.000217044
     EX              =   -134.953052372
     EC              =     -2.245863455
     EX+EC           =   -137.198915828
Transforming the Hamiltonian                       ... done (   0.0 sec)
Diagonalizing the Hamiltonian                      ... done (   0.0 sec)
Back transforming the eigenvectors                 ... done (   0.0 sec)
Now organizing SCF variables                       ... done
                      ------------------
                      INITIAL GUESS DONE (   0.3 sec)
                      ------------------
-------------------
DFT GRID GENERATION
-------------------

General Integration Accuracy     IntAcc      ... 4.959
Radial Grid Type                 RadialGrid  ... OptM3 with GC (2021)
Angular Grid (max. ang.)         AngularGrid ... 6 (Lebedev-590)
Angular grid pruning method      GridPruning ... 4 (adaptive)
Weight generation scheme         WeightScheme... Becke
Basis function cutoff            BFCut       ... 1.0000e-12
Integration weight cutoff        WCut        ... 1.0000e-14
Angular grids for H and He will be reduced by one unit
Partially contracted basis set               ... off
Rotationally invariant grid construction     ... off

Total number of grid points                  ...    32866
Total number of batches                      ...      514
Average number of points per batch           ...       63
Average number of grid points per atom       ...    32866
Time for grid setup =    0.978 sec

--------------
SCF ITERATIONS
--------------
ITER       Energy         Delta-E        Max-DP      RMS-DP      [F,P]     Damp
               ***  Starting incremental Fock matrix formation  ***
  0  -4580.3471495004   0.000000000000 0.03969742  0.00074734  0.1858804 0.7000
  1  -4580.3648539601  -0.017704459651 0.02253433  0.00045173  0.1233666 0.7000
                               ***Turning on DIIS***
  2  -4580.3733414867  -0.008487526578 0.05513914  0.00091461  0.0825650 0.0000
  3  -4580.3909160161  -0.017574529449 0.01109341  0.00026572  0.0270541 0.0000
  4  -4580.3916429244  -0.000726908286 0.00550427  0.00009964  0.0146529 0.0000
  5  -4580.3923339785  -0.000691054148 0.00241394  0.00005112  0.0024098 0.0000
  6  -4580.3924954248  -0.000161446237 0.00168953  0.00004119  0.0022195 0.0000
  7  -4580.3926331987  -0.000137773957 0.00178965  0.00004391  0.0021226 0.0000
                      *** Initiating the SOSCF procedure ***
                           *** Shutting down DIIS ***
                      *** Re-Reading the Fockian *** 
                      *** Removing any level shift *** 
ITER      Energy       Delta-E        Grad      Rot      Max-DP    RMS-DP
  8  -4580.39277349  -0.0001402866  0.003241  0.003241  0.001555  0.000038
               *** Restarting incremental Fock matrix formation ***
  9  -4580.39289026  -0.0001167776  0.002999  0.059971  0.007830  0.000196
 10  -4580.39336681  -0.0004765512  0.003495  0.144906  0.018591  0.000491
 11  -4580.39377573  -0.0004089172  0.002163  0.039062  0.004792  0.000134
 12  -4580.39384092  -0.0000651930  0.000809  0.001877  0.001157  0.000020
 13  -4580.39384100  -0.0000000726  0.000843  0.006127  0.000904  0.000024
 14  -4580.39384829  -0.0000072914  0.000125  0.001012  0.000125  0.000003
 15  -4580.39384846  -0.0000001694  0.000024  0.000558  0.000096  0.000002
 16  -4580.39384851  -0.0000000524  0.000014  0.000578  0.000094  0.000002
 17  -4580.39384853  -0.0000000165  0.000004  0.000017  0.000002  0.000000
 18  -4580.39384853  -0.0000000001  0.000001  0.000017  0.000003  0.000000
 19  -4580.39384853  -0.0000000001  0.000001  0.000191  0.000038  0.000001
 20  -4580.39384853  -0.0000000005  0.000003  0.000317  0.000064  0.000001
 21  -4580.39384853  -0.0000000008  0.000004  0.001021  0.000211  0.000005
 22  -4580.39384853  -0.0000000023  0.000007  0.002522  0.000529  0.000011
 23  -4580.39384854  -0.0000000054  0.000010  0.006894  0.001455  0.000031
 24  -4580.39384855  -0.0000000143  0.000015  0.014842  0.003131  0.000068
 25  -4580.39384858  -0.0000000246  0.000025  0.008078  0.001727  0.000038
 26  -4580.39384861  -0.0000000303  0.000023  0.013099  0.002873  0.000064
 27  -4580.39384867  -0.0000000616  0.000010  0.002557  0.000539  0.000012
 28  -4580.39384867  -0.0000000021  0.000007  0.001107  0.000212  0.000005
               *** Restarting incremental Fock matrix formation ***
 29  -4580.39384867  -0.0000000016  0.000002  0.000587  0.000121  0.000003
 30  -4580.39384867  -0.0000000004  0.000002  0.000852  0.000178  0.000004
 31  -4580.39384867  -0.0000000002  0.000002  0.000406  0.000085  0.000002
 32  -4580.39384867  -0.0000000001  0.000001  0.000193  0.000040  0.000001
                  ***Gradient check signals convergence***
              ***Rediagonalizing the Fockian in SOSCF/NRSCF***

               *****************************************************
               *                     SUCCESS                       *
               *           SCF CONVERGED AFTER  33 CYCLES          *
               *****************************************************


----------------
TOTAL SCF ENERGY
----------------

Total Energy       :        -4580.39384867 Eh         -124638.85314 eV

Components:
Nuclear Repulsion  :            0.00000000 Eh               0.00000 eV
Electronic Energy  :        -4580.39384867 Eh         -124638.85314 eV
One Electron Energy:        -6292.75950093 Eh         -171234.69142 eV
Two Electron Energy:         1712.36565226 Eh           46595.83828 eV

Virial components:
Potential Energy   :        -8953.81802147 Eh         -243645.77508 eV
Kinetic Energy     :         4373.42417280 Eh          119006.92194 eV
Virial Ratio       :            2.04732440


DFT components:
N(Alpha)           :       23.999999973401 electrons
N(Beta)            :       19.999999973304 electrons
N(Total)           :       43.999999946706 electrons
E(X)               :     -129.894748269141 Eh       
E(C)               :       -2.240475075494 Eh       
E(XC)              :     -132.135223344635 Eh       
DFET-embed. en.    :        0.000000000000 Eh       

---------------
SCF CONVERGENCE
---------------

  Last Energy change         ...   -3.0923e-11  Tolerance :   1.0000e-09
  Last MAX-Density change    ...    1.1578e-05  Tolerance :   1.0000e-08
  Last RMS-Density change    ...    2.5602e-07  Tolerance :   1.0000e-09
  Last Orbital Gradient      ...    2.0140e-07  Tolerance :   2.0000e-06
  Last Orbital Rotation      ...    5.4072e-05  Tolerance :   2.0000e-06

             **** THE GBW FILE WAS UPDATED (Ru_sapporo-qzp-2012-diffuse_pbe.gbw) ****
             **** DENSITY Ru_sapporo-qzp-2012-diffuse_pbe.scfp WAS UPDATED ****
             **** ENERGY FILE WAS UPDATED (Ru_sapporo-qzp-2012-diffuse_pbe.en.tmp) ****
----------------------
UHF SPIN CONTAMINATION
----------------------

Warning: in a DFT calculation there is little theoretical justification to 
         calculate <S**2> as in Hartree-Fock theory. We will do it anyways
         but you should keep in mind that the values have only limited relevance

Expectation value of <S**2>     :     6.001400
Ideal value S*(S+1) for S=2.0   :     6.000000
Deviation                       :     0.001400

             **** THE GBW FILE WAS UPDATED (Ru_sapporo-qzp-2012-diffuse_pbe.gbw) ****
             **** DENSITY Ru_sapporo-qzp-2012-diffuse_pbe.scfp WAS UPDATED ****
----------------
ORBITAL ENERGIES
----------------
                 SPIN UP ORBITALS
  NO   OCC          E(Eh)            E(eV) 
   0   1.0000    -827.359939    -22513.6085 
   1   1.0000    -116.388724     -3167.0982 
   2   1.0000    -105.133223     -2860.8204 
   3   1.0000    -105.133223     -2860.8204 
   4   1.0000    -105.133222     -2860.8204 
   5   1.0000     -20.339279      -553.4599 
   6   1.0000     -16.532443      -449.8706 
   7   1.0000     -16.532442      -449.8706 
   8   1.0000     -16.532441      -449.8706 
   9   1.0000     -10.077110      -274.2121 
  10   1.0000     -10.077110      -274.2121 
  11   1.0000     -10.077110      -274.2121 
  12   1.0000     -10.068091      -273.9667 
  13   1.0000     -10.068091      -273.9667 
  14   1.0000      -2.815755       -76.6206 
  15   1.0000      -1.742203       -47.4078 
  16   1.0000      -1.742201       -47.4077 
  17   1.0000      -1.742201       -47.4077 
  18   1.0000      -0.230995        -6.2857 
  19   1.0000      -0.230994        -6.2857 
  20   1.0000      -0.230993        -6.2857 
  21   1.0000      -0.202908        -5.5214 
  22   1.0000      -0.202906        -5.5214 
  23   1.0000      -0.172920        -4.7054 
  24   0.0000      -0.042467        -1.1556 
  25   0.0000      -0.042466        -1.1556 
  26   0.0000      -0.042466        -1.1555 
  27   0.0000       0.002021         0.0550 
  28   0.0000       0.041362         1.1255 
  29   0.0000       0.041362         1.1255 
  30   0.0000       0.041362         1.1255 
  31   0.0000       0.041838         1.1385 
  32   0.0000       0.041838         1.1385 
  33   0.0000       0.119486         3.2514 
  34   0.0000       0.141628         3.8539 
  35   0.0000       0.141629         3.8539 
  36   0.0000       0.141629         3.8539 
  37   0.0000       0.200320         5.4510 
  38   0.0000       0.200320         5.4510 
  39   0.0000       0.200320         5.4510 
  40   0.0000       0.203012         5.5242 
  41   0.0000       0.203013         5.5243 
  42   0.0000       0.326129         8.8744 
  43   0.0000       0.326586         8.8869 
  44   0.0000       0.326586         8.8869 
  45   0.0000       0.326586         8.8869 
  46   0.0000       0.327643         8.9156 
  47   0.0000       0.327644         8.9156 
  48   0.0000       0.327644         8.9157 
  49   0.0000       0.610031        16.5998 
  50   0.0000       0.697056        18.9679 
  51   0.0000       0.697056        18.9679 
  52   0.0000       0.697056        18.9679 
  53   0.0000       0.697487        18.9796 
  54   0.0000       0.697487        18.9796 
  55   0.0000       0.697663        18.9844 
  56   0.0000       0.697664        18.9844 
  57   0.0000       0.697664        18.9844 
  58   0.0000       0.698714        19.0130 
  59   0.0000       0.793573        21.5942 
  60   0.0000       0.793573        21.5942 
  61   0.0000       0.793574        21.5942 
  62   0.0000       0.804999        21.9051 
  63   0.0000       0.805000        21.9052 
  64   0.0000       0.862461        23.4688 
  65   0.0000       0.862462        23.4688 
  66   0.0000       0.862463        23.4688 
  67   0.0000       0.973987        26.5035 
  68   0.0000       0.985101        26.8060 
  69   0.0000       0.985101        26.8060 
  70   0.0000       0.985102        26.8060 
  71   0.0000       0.995012        27.0757 
  72   0.0000       0.995014        27.0757 
  73   0.0000       0.995015        27.0757 
  74   0.0000       2.181364        59.3579 
  75   0.0000       2.181365        59.3580 
  76   0.0000       2.181365        59.3580 
  77   0.0000       2.191267        59.6274 
  78   0.0000       2.191268        59.6274 
  79   0.0000       2.191807        59.6421 
  80   0.0000       2.191808        59.6421 
  81   0.0000       2.191808        59.6421 
  82   0.0000       2.192358        59.6571 
  83   0.0000       2.192359        59.6571 
  84   0.0000       2.194669        59.7200 
  85   0.0000       2.194670        59.7200 
  86   0.0000       2.194672        59.7201 
  87   0.0000       2.197169        59.7880 
  88   0.0000       2.197169        59.7880 
  89   0.0000       2.197170        59.7880 
  90   0.0000       2.199811        59.8599 
  91   0.0000       2.199812        59.8599 
  92   0.0000       2.199813        59.8599 
  93   0.0000       2.200141        59.8689 
  94   0.0000       2.435198        66.2651 
  95   0.0000       2.453481        66.7626 
  96   0.0000       2.453481        66.7626 
  97   0.0000       2.453483        66.7627 
  98   0.0000       2.468589        67.1737 
  99   0.0000       2.468590        67.1737 
 100   0.0000       2.468591        67.1738 
 101   0.0000       2.631855        71.6164 
 102   0.0000       2.935685        79.8840 
 103   0.0000       2.935685        79.8841 
 104   0.0000       2.935686        79.8841 
 105   0.0000       2.959241        80.5250 
 106   0.0000       2.959242        80.5251 
 107   0.0000       3.458623        94.1139 
 108   0.0000       3.458624        94.1140 
 109   0.0000       3.458625        94.1140 
 110   0.0000       5.859959       159.4576 
 111   0.0000       5.859960       159.4576 
 112   0.0000       5.859960       159.4576 
 113   0.0000       5.880175       160.0077 
 114   0.0000       5.880175       160.0077 
 115   0.0000       5.886938       160.1917 
 116   0.0000       5.886939       160.1917 
 117   0.0000       5.886939       160.1918 
 118   0.0000       5.896603       160.4547 
 119   0.0000       6.645444       180.8317 
 120   0.0000       6.645445       180.8318 
 121   0.0000       6.645446       180.8318 
 122   0.0000       6.648769       180.9222 
 123   0.0000       6.648770       180.9222 
 124   0.0000       6.666753       181.4116 
 125   0.0000       6.666753       181.4116 
 126   0.0000       6.666754       181.4116 
 127   0.0000       6.674001       181.6088 
 128   0.0000       6.674002       181.6088 
 129   0.0000       6.674002       181.6088 
 130   0.0000       7.295857       198.5304 
 131   0.0000       7.311405       198.9534 
 132   0.0000       7.311405       198.9534 
 133   0.0000       7.311407       198.9535 
 134   0.0000       7.324101       199.2989 
 135   0.0000       7.324101       199.2989 
 136   0.0000       7.324102       199.2989 
 137   0.0000       9.672996       263.2156 
 138   0.0000      10.709824       291.4291 
 139   0.0000      10.709825       291.4292 
 140   0.0000      10.709825       291.4292 
 141   0.0000      10.731598       292.0216 
 142   0.0000      10.731598       292.0216 
 143   0.0000      11.325468       308.1816 
 144   0.0000      11.325470       308.1817 
 145   0.0000      11.325470       308.1817 
 146   0.0000      17.483564       475.7520 
 147   0.0000      40.517700      1102.5427 
 148   0.0000      40.517701      1102.5427 
 149   0.0000      40.517701      1102.5427 

                 SPIN DOWN ORBITALS
  NO   OCC          E(Eh)            E(eV) 
   0   1.0000    -827.359631    -22513.6001 
   1   1.0000    -116.374786     -3166.7189 
   2   1.0000    -105.123059     -2860.5439 
   3   1.0000    -105.123058     -2860.5438 
   4   1.0000    -105.123058     -2860.5438 
   5   1.0000     -20.331409      -553.2458 
   6   1.0000     -16.523410      -449.6249 
   7   1.0000     -16.523410      -449.6248 
   8   1.0000     -16.523409      -449.6248 
   9   1.0000     -10.060928      -273.7718 
  10   1.0000     -10.060927      -273.7717 
  11   1.0000     -10.059768      -273.7402 
  12   1.0000     -10.059767      -273.7402 
  13   1.0000     -10.059767      -273.7402 
  14   1.0000      -2.744125       -74.6714 
  15   1.0000      -1.664775       -45.3008 
  16   1.0000      -1.664775       -45.3008 
  17   1.0000      -1.664774       -45.3008 
  18   1.0000      -0.156122        -4.2483 
  19   1.0000      -0.156122        -4.2483 
  20   0.0000      -0.125460        -3.4139 
  21   0.0000      -0.125449        -3.4136 
  22   0.0000      -0.125444        -3.4135 
  23   0.0000      -0.119106        -3.2410 
  24   0.0000      -0.004546        -0.1237 
  25   0.0000      -0.004517        -0.1229 
  26   0.0000      -0.004481        -0.1219 
  27   0.0000       0.018450         0.5021 
  28   0.0000       0.059189         1.6106 
  29   0.0000       0.059190         1.6106 
  30   0.0000       0.064592         1.7576 
  31   0.0000       0.064612         1.7582 
  32   0.0000       0.064625         1.7585 
  33   0.0000       0.149574         4.0701 
  34   0.0000       0.183557         4.9948 
  35   0.0000       0.183572         4.9952 
  36   0.0000       0.183591         4.9958 
  37   0.0000       0.225624         6.1395 
  38   0.0000       0.225624         6.1396 
  39   0.0000       0.239049         6.5049 
  40   0.0000       0.239127         6.5070 
  41   0.0000       0.239177         6.5083 
  42   0.0000       0.359862         9.7923 
  43   0.0000       0.359933         9.7943 
  44   0.0000       0.359970         9.7953 
  45   0.0000       0.364955         9.9309 
  46   0.0000       0.364957         9.9310 
  47   0.0000       0.364962         9.9311 
  48   0.0000       0.379873        10.3369 
  49   0.0000       0.661258        17.9938 
  50   0.0000       0.729740        19.8572 
  51   0.0000       0.729743        19.8573 
  52   0.0000       0.729748        19.8574 
  53   0.0000       0.733722        19.9656 
  54   0.0000       0.735172        20.0050 
  55   0.0000       0.735172        20.0051 
  56   0.0000       0.745535        20.2870 
  57   0.0000       0.745614        20.2892 
  58   0.0000       0.745755        20.2930 
  59   0.0000       0.842799        22.9337 
  60   0.0000       0.842799        22.9337 
  61   0.0000       0.863262        23.4906 
  62   0.0000       0.863300        23.4916 
  63   0.0000       0.863319        23.4921 
  64   0.0000       0.923189        25.1213 
  65   0.0000       0.923205        25.1217 
  66   0.0000       0.923224        25.1222 
  67   0.0000       1.054723        28.7005 
  68   0.0000       1.054737        28.7009 
  69   0.0000       1.054745        28.7011 
  70   0.0000       1.067419        29.0460 
  71   0.0000       1.067420        29.0460 
  72   0.0000       1.067423        29.0460 
  73   0.0000       1.089079        29.6353 
  74   0.0000       2.251775        61.2739 
  75   0.0000       2.251782        61.2741 
  76   0.0000       2.251801        61.2746 
  77   0.0000       2.255236        61.3681 
  78   0.0000       2.255242        61.3683 
  79   0.0000       2.255246        61.3684 
  80   0.0000       2.258081        61.4455 
  81   0.0000       2.260718        61.5173 
  82   0.0000       2.260719        61.5173 
  83   0.0000       2.260720        61.5173 
  84   0.0000       2.267912        61.7130 
  85   0.0000       2.267913        61.7131 
  86   0.0000       2.270105        61.7727 
  87   0.0000       2.270107        61.7728 
  88   0.0000       2.273069        61.8533 
  89   0.0000       2.273138        61.8552 
  90   0.0000       2.273158        61.8558 
  91   0.0000       2.287713        62.2518 
  92   0.0000       2.287724        62.2521 
  93   0.0000       2.287740        62.2526 
  94   0.0000       2.524227        68.6877 
  95   0.0000       2.524233        68.6879 
  96   0.0000       2.524235        68.6879 
  97   0.0000       2.535220        68.9868 
  98   0.0000       2.535220        68.9868 
  99   0.0000       2.535221        68.9869 
 100   0.0000       2.555383        69.5355 
 101   0.0000       2.698052        73.4177 
 102   0.0000       3.001627        81.6784 
 103   0.0000       3.001627        81.6784 
 104   0.0000       3.029582        82.4391 
 105   0.0000       3.029597        82.4395 
 106   0.0000       3.029605        82.4397 
 107   0.0000       3.533240        96.1443 
 108   0.0000       3.533244        96.1445 
 109   0.0000       3.533248        96.1446 
 110   0.0000       5.954744       162.0368 
 111   0.0000       5.954744       162.0368 
 112   0.0000       5.954745       162.0368 
 113   0.0000       5.955113       162.0469 
 114   0.0000       5.963063       162.2632 
 115   0.0000       5.963064       162.2632 
 116   0.0000       5.981629       162.7684 
 117   0.0000       5.981631       162.7685 
 118   0.0000       5.981634       162.7685 
 119   0.0000       6.742857       183.4825 
 120   0.0000       6.742858       183.4825 
 121   0.0000       6.742860       183.4825 
 122   0.0000       6.744576       183.5292 
 123   0.0000       6.744577       183.5293 
 124   0.0000       6.744579       183.5293 
 125   0.0000       6.766847       184.1353 
 126   0.0000       6.766850       184.1353 
 127   0.0000       6.774376       184.3401 
 128   0.0000       6.774384       184.3404 
 129   0.0000       6.774387       184.3404 
 130   0.0000       7.361479       200.3160 
 131   0.0000       7.361481       200.3161 
 132   0.0000       7.361481       200.3161 
 133   0.0000       7.367960       200.4924 
 134   0.0000       7.367960       200.4924 
 135   0.0000       7.367961       200.4924 
 136   0.0000       7.381102       200.8500 
 137   0.0000       9.745955       265.2009 
 138   0.0000      10.755166       292.6629 
 139   0.0000      10.755166       292.6629 
 140   0.0000      10.768137       293.0159 
 141   0.0000      10.768140       293.0160 
 142   0.0000      10.768142       293.0160 
 143   0.0000      11.378526       309.6254 
 144   0.0000      11.378528       309.6255 
 145   0.0000      11.378529       309.6255 
 146   0.0000      17.529700       477.0074 
 147   0.0000      40.543575      1103.2468 
 148   0.0000      40.543576      1103.2468 
 149   0.0000      40.543577      1103.2468 

                    ********************************
                    * MULLIKEN POPULATION ANALYSIS *
                    ********************************

--------------------------------------------
MULLIKEN ATOMIC CHARGES AND SPIN POPULATIONS
--------------------------------------------
   0 Ru:   -0.000000    4.000000
Sum of atomic charges         :   -0.0000000
Sum of atomic spin populations:    4.0000000

-----------------------------------------------------
MULLIKEN REDUCED ORBITAL CHARGES AND SPIN POPULATIONS
-----------------------------------------------------
CHARGE
  0 Rus       :     8.999952  s :     8.999952
      pz      :     5.999923  p :    17.999768
      px      :     5.999923
      py      :     5.999923
      dz2     :     3.658639  d :    16.999771
      dxz     :     3.285229
      dyz     :     3.169780
      dx2y2   :     3.858857
      dxy     :     3.027266
      f0      :     0.000041  f :     0.000194
      f+1     :     0.000032
      f-1     :     0.000025
      f+2     :     0.000026
      f-2     :     0.000004
      f+3     :     0.000029
      f-3     :     0.000037
      g0      :     0.000016  g :     0.000276
      g+1     :     0.000053
      g-1     :     0.000039
      g+2     :     0.000030
      g-2     :     0.000019
      g+3     :     0.000034
      g-3     :     0.000019
      g+4     :     0.000059
      g-4     :     0.000008
      h0      :     0.000005  h :     0.000038
      h+1     :     0.000005
      h-1     :     0.000004
      h+2     :     0.000004
      h-2     :     0.000002
      h+3     :     0.000001
      h-3     :     0.000002
      h+4     :     0.000003
      h-4     :     0.000002
      h+5     :     0.000005
      h-5     :     0.000005

SPIN
  0 Rus       :     0.999976  s :     0.999976
      pz      :    -0.000005  p :    -0.000015
      px      :    -0.000005
      py      :    -0.000005
      dz2     :     0.341314  d :     3.000058
      dxz     :     0.714743
      dyz     :     0.830197
      dx2y2   :     0.141086
      dxy     :     0.972719
      f0      :     0.000004  f :     0.000017
      f+1     :     0.000003
      f-1     :     0.000002
      f+2     :     0.000002
      f-2     :     0.000000
      f+3     :     0.000003
      f-3     :     0.000003
      g0      :     0.000000  g :    -0.000034
      g+1     :    -0.000007
      g-1     :    -0.000006
      g+2     :    -0.000010
      g-2     :     0.000001
      g+3     :    -0.000006
      g-3     :     0.000002
      g+4     :    -0.000009
      g-4     :    -0.000000
      h0      :    -0.000000  h :    -0.000003
      h+1     :    -0.000000
      h-1     :    -0.000000
      h+2     :    -0.000000
      h-2     :    -0.000000
      h+3     :    -0.000000
      h-3     :    -0.000000
      h+4     :    -0.000000
      h-4     :    -0.000000
      h+5     :    -0.000000
      h-5     :    -0.000000


                     *******************************
                     * LOEWDIN POPULATION ANALYSIS *
                     *******************************

-------------------------------------------
LOEWDIN ATOMIC CHARGES AND SPIN POPULATIONS
-------------------------------------------
   0 Ru:   -0.000000    4.000000

----------------------------------------------------
LOEWDIN REDUCED ORBITAL CHARGES AND SPIN POPULATIONS
----------------------------------------------------
CHARGE
  0 Rus       :     8.999952  s :     8.999952
      pz      :     5.999923  p :    17.999768
      px      :     5.999923
      py      :     5.999923
      dz2     :     3.658639  d :    16.999771
      dxz     :     3.285229
      dyz     :     3.169780
      dx2y2   :     3.858857
      dxy     :     3.027266
      f0      :     0.000041  f :     0.000194
      f+1     :     0.000032
      f-1     :     0.000025
      f+2     :     0.000026
      f-2     :     0.000004
      f+3     :     0.000029
      f-3     :     0.000037
      g0      :     0.000016  g :     0.000276
      g+1     :     0.000053
      g-1     :     0.000039
      g+2     :     0.000030
      g-2     :     0.000019
      g+3     :     0.000034
      g-3     :     0.000019
      g+4     :     0.000059
      g-4     :     0.000008
      h0      :     0.000005  h :     0.000038
      h+1     :     0.000005
      h-1     :     0.000004
      h+2     :     0.000004
      h-2     :     0.000002
      h+3     :     0.000001
      h-3     :     0.000002
      h+4     :     0.000003
      h-4     :     0.000002
      h+5     :     0.000005
      h-5     :     0.000005

SPIN
  0 Rus       :     0.999976  s :     0.999976
      pz      :    -0.000005  p :    -0.000015
      px      :    -0.000005
      py      :    -0.000005
      dz2     :     0.341314  d :     3.000058
      dxz     :     0.714743
      dyz     :     0.830197
      dx2y2   :     0.141086
      dxy     :     0.972719
      f0      :     0.000004  f :     0.000017
      f+1     :     0.000003
      f-1     :     0.000002
      f+2     :     0.000002
      f-2     :     0.000000
      f+3     :     0.000003
      f-3     :     0.000003
      g0      :     0.000000  g :    -0.000034
      g+1     :    -0.000007
      g-1     :    -0.000006
      g+2     :    -0.000010
      g-2     :     0.000001
      g+3     :    -0.000006
      g-3     :     0.000002
      g+4     :    -0.000009
      g-4     :    -0.000000
      h0      :    -0.000000  h :    -0.000003
      h+1     :    -0.000000
      h-1     :    -0.000000
      h+2     :    -0.000000
      h-2     :    -0.000000
      h+3     :    -0.000000
      h-3     :    -0.000000
      h+4     :    -0.000000
      h-4     :    -0.000000
      h+5     :    -0.000000
      h-5     :    -0.000000


                      *****************************
                      * MAYER POPULATION ANALYSIS *
                      *****************************

  NA   - Mulliken gross atomic population
  ZA   - Total nuclear charge
  QA   - Mulliken gross atomic charge
  VA   - Mayer's total valence
  BVA  - Mayer's bonded valence
  FA   - Mayer's free valence

  ATOM       NA         ZA         QA         VA         BVA        FA
  0 Ru    44.0000    44.0000    -0.0000     4.0028     0.0000     4.0028

  Mayer bond orders larger than 0.100000


-------
TIMINGS
-------

Total SCF time: 0 days 0 hours 0 min 39 sec 

Total time                  ....      39.995 sec
Sum of individual times     ....      35.760 sec  ( 89.4%)

Fock matrix formation       ....      33.727 sec  ( 84.3%)
  XC integration            ....       9.311 sec  ( 27.6% of F)
    Basis function eval.    ....       0.164 sec  (  1.8% of XC)
    Density eval.           ....       0.283 sec  (  3.0% of XC)
    XC-Functional eval.     ....       0.089 sec  (  1.0% of XC)
    XC-Potential eval.      ....       0.311 sec  (  3.3% of XC)
Diagonalization             ....       0.233 sec  (  0.6%)
Density matrix formation    ....       0.020 sec  (  0.0%)
Population analysis         ....       0.086 sec  (  0.2%)
Initial guess               ....       0.229 sec  (  0.6%)
Orbital Transformation      ....       0.000 sec  (  0.0%)
Orbital Orthonormalization  ....       0.000 sec  (  0.0%)
DIIS solution               ....       0.142 sec  (  0.4%)
SOSCF solution              ....       0.258 sec  (  0.6%)
Grid generation             ....       1.064 sec  (  2.7%)

Maximum memory used throughout the entire SCF-calculation: 234.1 MB

-------------------------   --------------------
FINAL SINGLE POINT ENERGY     -4580.393848671336
-------------------------   --------------------


                            ***************************************
                            *     ORCA property calculations      *
                            ***************************************

                                    ---------------------
                                    Active property flags
                                    ---------------------
   (+) Dipole Moment


------------------------------------------------------------------------------
                       ORCA ELECTRIC PROPERTIES CALCULATION
------------------------------------------------------------------------------

Dipole Moment Calculation                       ... on
Quadrupole Moment Calculation                   ... off
Polarizability Calculation                      ... off
GBWName                                         ... Ru_sapporo-qzp-2012-diffuse_pbe.gbw
Electron density                                ... Ru_sapporo-qzp-2012-diffuse_pbe.scfp
The origin for moment calculation is the CENTER OF MASS  = ( 0.000000,  0.000000  0.000000)

-------------
DIPOLE MOMENT
-------------
                                X             Y             Z
Electronic contribution:     -0.00000      -0.00000      -0.00000
Nuclear contribution   :      0.00000       0.00000       0.00000
                        -----------------------------------------
Total Dipole Moment    :     -0.00000      -0.00000      -0.00000
                        -----------------------------------------
Magnitude (a.u.)       :      0.00000
Magnitude (Debye)      :      0.00000



--------------------
Rotational spectrum 
--------------------
 
Rotational constants in cm-1:     0.000000     0.000000     0.000000 
Rotational constants in MHz :     0.000000     0.000000     0.000000 

 Dipole components along the rotational axes: 
x,y,z [a.u.] :    -0.000000    -0.000000    -0.000000 
x,y,z [Debye]:    -0.000000    -0.000000    -0.000000 

 

Timings for individual modules:

Sum of individual times         ...       52.210 sec (=   0.870 min)
GTO integral calculation        ...        5.384 sec (=   0.090 min)  10.3 %
Relativistic integrals          ...        3.806 sec (=   0.063 min)   7.3 %
SCF iterations                  ...       43.020 sec (=   0.717 min)  82.4 %
                             ****ORCA TERMINATED NORMALLY****
TOTAL RUN TIME: 0 days 0 hours 0 minutes 58 seconds 394 msec
