
                                 *****************
                                 * O   R   C   A *
                                 *****************

                                            #,                                       
                                            ###                                      
                                            ####                                     
                                            #####                                    
                                            ######                                   
                                           ########,                                 
                                     ,,################,,,,,                         
                               ,,#################################,,                 
                          ,,##########################################,,             
                       ,#########################################, ''#####,          
                    ,#############################################,,   '####,        
                  ,##################################################,,,,####,       
                ,###########''''           ''''###############################       
              ,#####''   ,,,,##########,,,,          '''####'''          '####       
            ,##' ,,,,###########################,,,                        '##       
           ' ,,###''''                  '''############,,,                           
         ,,##''                                '''############,,,,        ,,,,,,###''
      ,#''                                            '''#######################'''  
     '                                                          ''''####''''         
             ,#######,   #######,   ,#######,      ##                                
            ,#'     '#,  ##    ##  ,#'     '#,    #''#        ######   ,####,        
            ##       ##  ##   ,#'  ##            #'  '#       #        #'  '#        
            ##       ##  #######   ##           ,######,      #####,   #    #        
            '#,     ,#'  ##    ##  '#,     ,#' ,#      #,         ##   #,  ,#        
             '#######'   ##     ##  '#######'  #'      '#     #####' # '####'        



                  #######################################################
                  #                        -***-                        #
                  #          Department of theory and spectroscopy      #
                  #    Directorship and core code : Frank Neese         #
                  #        Max Planck Institute fuer Kohlenforschung    #
                  #                Kaiser Wilhelm Platz 1               #
                  #                 D-45470 Muelheim/Ruhr               #
                  #                      Germany                        #
                  #                                                     #
                  #                  All rights reserved                #
                  #                        -***-                        #
                  #######################################################


                         Program Version 5.0.1 -  RELEASE  -


 With contributions from (in alphabetic order):
   Daniel Aravena         : Magnetic Suceptibility
   Michael Atanasov       : Ab Initio Ligand Field Theory (pilot matlab implementation)
   Alexander A. Auer      : GIAO ZORA, VPT2 properties, NMR spectrum
   Ute Becker             : Parallelization
   Giovanni Bistoni       : ED, misc. LED, open-shell LED, HFLD
   Martin Brehm           : Molecular dynamics
   Dmytro Bykov           : SCF Hessian
   Vijay G. Chilkuri      : MRCI spin determinant printing, contributions to CSF-ICE
   Dipayan Datta          : RHF DLPNO-CCSD density
   Achintya Kumar Dutta   : EOM-CC, STEOM-CC
   Dmitry Ganyushin       : Spin-Orbit,Spin-Spin,Magnetic field MRCI
   Miquel Garcia          : C-PCM and meta-GGA Hessian, CC/C-PCM, Gaussian charge scheme
   Yang Guo               : DLPNO-NEVPT2, F12-NEVPT2, CIM, IAO-localization
   Andreas Hansen         : Spin unrestricted coupled pair/coupled cluster methods
   Benjamin Helmich-Paris : MC-RPA, TRAH-SCF, COSX integrals
   Lee Huntington         : MR-EOM, pCC
   Robert Izsak           : Overlap fitted RIJCOSX, COSX-SCS-MP3, EOM
   Marcus Kettner         : VPT2
   Christian Kollmar      : KDIIS, OOCD, Brueckner-CCSD(T), CCSD density, CASPT2, CASPT2-K
   Simone Kossmann        : Meta GGA functionals, TD-DFT gradient, OOMP2, MP2 Hessian
   Martin Krupicka        : Initial AUTO-CI
   Lucas Lang             : DCDCAS
   Marvin Lechner         : AUTO-CI (C++ implementation), FIC-MRCC
   Dagmar Lenk            : GEPOL surface, SMD
   Dimitrios Liakos       : Extrapolation schemes; Compound Job, initial MDCI parallelization
   Dimitrios Manganas     : Further ROCIS development; embedding schemes
   Dimitrios Pantazis     : SARC Basis sets
   Anastasios Papadopoulos: AUTO-CI, single reference methods and gradients
   Taras Petrenko         : DFT Hessian,TD-DFT gradient, ASA, ECA, R-Raman, ABS, FL, XAS/XES, NRVS
   Peter Pinski           : DLPNO-MP2, DLPNO-MP2 Gradient
   Christoph Reimann      : Effective Core Potentials
   Marius Retegan         : Local ZFS, SOC
   Christoph Riplinger    : Optimizer, TS searches, QM/MM, DLPNO-CCSD(T), (RO)-DLPNO pert. Triples
   Tobias Risthaus        : Range-separated hybrids, TD-DFT gradient, RPA, STAB
   Michael Roemelt        : Original ROCIS implementation
   Masaaki Saitow         : Open-shell DLPNO-CCSD energy and density
   Barbara Sandhoefer     : DKH picture change effects
   Avijit Sen             : IP-ROCIS
   Kantharuban Sivalingam : CASSCF convergence, NEVPT2, FIC-MRCI
   Bernardo de Souza      : ESD, SOC TD-DFT
   Georgi Stoychev        : AutoAux, RI-MP2 NMR, DLPNO-MP2 response
   Willem Van den Heuvel  : Paramagnetic NMR
   Boris Wezisla          : Elementary symmetry handling
   Frank Wennmohs         : Technical directorship


 We gratefully acknowledge several colleagues who have allowed us to
 interface, adapt or use parts of their codes:
   Stefan Grimme, W. Hujo, H. Kruse, P. Pracht,  : VdW corrections, initial TS optimization,
                  C. Bannwarth, S. Ehlert          DFT functionals, gCP, sTDA/sTD-DF
   Ed Valeev, F. Pavosevic, A. Kumar             : LibInt (2-el integral package), F12 methods
   Garnet Chan, S. Sharma, J. Yang, R. Olivares  : DMRG
   Ulf Ekstrom                                   : XCFun DFT Library
   Mihaly Kallay                                 : mrcc  (arbitrary order and MRCC methods)
   Jiri Pittner, Ondrej Demel                    : Mk-CCSD
   Frank Weinhold                                : gennbo (NPA and NBO analysis)
   Christopher J. Cramer and Donald G. Truhlar   : smd solvation model
   Lars Goerigk                                  : TD-DFT with DH, B97 family of functionals
   V. Asgeirsson, H. Jonsson                     : NEB implementation
   FAccTs GmbH                                   : IRC, NEB, NEB-TS, DLPNO-Multilevel, CI-OPT
                                                   MM, QMMM, 2- and 3-layer-ONIOM, Crystal-QMMM,
                                                   LR-CPCM, SF, NACMEs, symmetry and pop. for TD-DFT,
                                                   nearIR, NL-DFT gradient (VV10), updates on ESD,
                                                   ML-optimized integration grids
   S Lehtola, MJT Oliveira, MAL Marques          : LibXC Library
   Liviu Ungur et al                             : ANISO software


 Your calculation uses the libint2 library for the computation of 2-el integrals
 For citations please refer to: http://libint.valeyev.net

 Your ORCA version has been built with support for libXC version: 5.1.0
 For citations please refer to: https://tddft.org/programs/libxc/

 This ORCA versions uses:
   CBLAS   interface :  Fast vector & matrix operations
   LAPACKE interface :  Fast linear algebra routines
   SCALAPACK package :  Parallel linear algebra routines
   Shared memory     :  Shared parallel matrices
   BLAS/LAPACK       :  OpenBLAS 0.3.15  USE64BITINT DYNAMIC_ARCH NO_AFFINITY Haswell SINGLE_THREADED
        Core in use  :  Haswell
   Copyright (c) 2011-2014, The OpenBLAS Project


SCAN-COORDS

Reading of a custom basis requested
Basis file         : Sb_sarc-zora-tzvpp.basis
READING GTO-BASIS: ANTIMONY
Basis successfully read

================================================================================

----- Orbital basis set information -----
================================================================================
                                        WARNINGS
                       Please study these warnings very carefully!
================================================================================


INFO   : the flag for use of the SHARK integral package has been found!

================================================================================
                                       INPUT FILE
================================================================================
NAME = Sb_sarc-zora-tzvpp_pbe.inp
|  1> !uks pbe nori verytightscf soscf notrah defgrid3
|  2> 
|  3> %pal
|  4>   nprocs 32
|  5> end
|  6> %coords
|  7>   charge 0
|  8>   mult 4
|  9>   units bohrs
| 10>   coords
| 11>     Sb 0.0 0.0 0.0
| 12>   end
| 13> end
| 14> %basis
| 15>   gtoname "Sb_sarc-zora-tzvpp.basis"
| 16>   delECP Sb
| 17> end
| 18> %rel
| 19>   method zora
| 20>   modelpot 1, 0, 0, 0
| 21>   c 137.035999084
| 22> endd                         ****END OF INPUT****
================================================================================

                       ****************************
                       * Single Point Calculation *
                       ****************************

---------------------------------
CARTESIAN COORDINATES (ANGSTROEM)
---------------------------------
  Sb     0.000000    0.000000    0.000000

----------------------------
CARTESIAN COORDINATES (A.U.)
----------------------------
  NO LB      ZA    FRAG     MASS         X           Y           Z
   0 Sb   51.0000    0   121.750    0.000000    0.000000    0.000000

--------------------------------
INTERNAL COORDINATES (ANGSTROEM)
--------------------------------
 Sb     0   0   0     0.000000000000     0.00000000     0.00000000

---------------------------
INTERNAL COORDINATES (A.U.)
---------------------------
 Sb     0   0   0     0.000000000000     0.00000000     0.00000000

---------------------
BASIS SET INFORMATION
---------------------
There are 1 groups of distinct atoms

 Group   1 Type Sb  : 22s16p9d2f contracted to 15s11p5d2f pattern {811111111111111/61111111111/51111/11}

Atom   0Sb   basis set group =>   1


           ************************************************************
           *        Program running with 32 parallel MPI-processes    *
           *              working on a common directory               *
           ************************************************************
------------------------------------------------------------------------------
                           ORCA GTO INTEGRAL CALCULATION
------------------------------------------------------------------------------
------------------------------------------------------------------------------
                   ___                                                        
                  /   \      - P O W E R E D   B Y -                         
                 /     \                                                     
                 |  |  |   _    _      __       _____    __    __             
                 |  |  |  | |  | |    /  \     |  _  \  |  |  /  |          
                  \  \/   | |  | |   /    \    | | | |  |  | /  /          
                 / \  \   | |__| |  /  /\  \   | |_| |  |  |/  /          
                |  |  |   |  __  | /  /__\  \  |    /   |      \           
                |  |  |   | |  | | |   __   |  |    \   |  |\   \          
                \     /   | |  | | |  |  |  |  | |\  \  |  | \   \       
                 \___/    |_|  |_| |__|  |__|  |_| \__\ |__|  \__/        
                                                                              
                      - O R C A' S   B I G   F R I E N D -                    
                                      &                                       
                       - I N T E G R A L  F E E D E R -                       
                                                                              
 v1 FN, 2020, v2 2021                                                         
------------------------------------------------------------------------------


Reading SHARK input file Sb_sarc-zora-tzvpp_pbe.SHARKINP.tmp ... ok
----------------------
SHARK INTEGRAL PACKAGE
----------------------

Number of atoms                             ...      1
Number of basis functions                   ...     87
Number of shells                            ...     33
Maximum angular momentum                    ...      3
Integral batch strategy                     ... SHARK/LIBINT Hybrid
RI-J (if used) integral strategy            ... SPLIT-RIJ (Revised 2003 algorithm where possible)
Printlevel                                  ...      1
Contraction scheme used                     ... SEGMENTED contraction
Coulomb Range Separation                    ... NOT USED
Exchange Range Separation                   ... NOT USED
Finite Nucleus Model                        ... NOT USED
Auxiliary Coulomb fitting basis             ... NOT available
Auxiliary J/K fitting basis                 ... NOT available
Auxiliary Correlation fitting basis         ... NOT available
Auxiliary 'external' fitting basis          ... NOT available
Integral threshold                          ...     1.000000e-12
Primitive cut-off                           ...     1.000000e-14
Primitive pair pre-selection threshold      ...     1.000000e-14

Calculating pre-screening integrals         ... done (  0.9 sec) Dimension = 33
Organizing shell pair data                  ... done (  0.2 sec)
Shell pair information
Total number of shell pairs                 ...       561
Shell pairs after pre-screening             ...       561
Total number of primitive shell pairs       ...      1278
Primitive shell pairs kept                  ...      1278
          la=0 lb=0:    120 shell pairs
          la=1 lb=0:    165 shell pairs
          la=1 lb=1:     66 shell pairs
          la=2 lb=0:     75 shell pairs
          la=2 lb=1:     55 shell pairs
          la=2 lb=2:     15 shell pairs
          la=3 lb=0:     30 shell pairs
          la=3 lb=1:     22 shell pairs
          la=3 lb=2:     10 shell pairs
          la=3 lb=3:      3 shell pairs

Calculating one electron integrals          ... done (  1.2 sec)
Calculating Nuclear repulsion               ... done (  0.0 sec) ENN=      0.000000000000 Eh

SHARK setup successfully completed in   3.0 seconds

Maximum memory used throughout the entire GTOINT-calculation: 15.9 MB


           ************************************************************
           *        Program running with 32 parallel MPI-processes    *
           *              working on a common directory               *
           ************************************************************
------------------------------------------------------------------------------
                          ORCA RELATIVISTIC HAMILTONIAN
------------------------------------------------------------------------------

Relativistic Method            ... ZORA(MP)
Treatment of potential         ... Van Wuellen
Nucleus model                  ... Point Nucleus
Speed of light used            ... 137.03599908400000


            *************************************************
            *         ZERO ORDER REGULAR APPROXIMATION      *
            *                     ZORA(MP)                  *
            *            Programmed by FN according to      *
            *                   C. van Wuellen              *
            *       J. Chem. Phys. (1998) vol 109, 392-399  *
            *************************************************

Terms included in model potential: +V(e,N)
Basis function cutoff value   ... 1.000000e-12
Loading the fitted atomic densities  (DKH4)  ... done
Calculating the cutoffs                      ... done
Number of fit functions                      ... 29
Setting up the integration grid ... done

Maximum memory used throughout the entire REL-calculation: 23.6 MB


           ************************************************************
           *        Program running with 32 parallel MPI-processes    *
           *              working on a common directory               *
           ************************************************************
-------------------------------------------------------------------------------
                                 ORCA SCF
-------------------------------------------------------------------------------

------------
SCF SETTINGS
------------
Hamiltonian:
 Density Functional     Method          .... DFT(GTOs)
 Exchange Functional    Exchange        .... PBE
   PBE kappa parameter   XKappa         ....  0.804000
   PBE mue parameter    XMuePBE         ....  0.219520
 Correlation Functional Correlation     .... PBE
   PBE beta parameter  CBetaPBE         ....  0.066725
 LDA part of GGA corr.  LDAOpt          .... PW91-LDA
 Gradients option       PostSCFGGA      .... off
   Density functional embedding theory  .... OFF
   NL short-range parameter             ....  6.400000

Relativistic Settings:
 Scalar relativistic method             .... ZORA
 Speed of light used       Velit        ....       137.035999
Orbital energies will be scaled


General Settings:
 Integral files         IntName         .... Sb_sarc-zora-tzvpp_pbe
 Hartree-Fock type      HFTyp           .... UHF
 Total Charge           Charge          ....    0
 Multiplicity           Mult            ....    4
 Number of Electrons    NEL             ....   51
 Basis Dimension        Dim             ....   87
 Nuclear Repulsion      ENuc            ....      0.0000000000 Eh

Convergence Acceleration:
 DIIS                   CNVDIIS         .... on
   Start iteration      DIISMaxIt       ....    12
   Startup error        DIISStart       ....  0.200000
   # of expansion vecs  DIISMaxEq       ....     5
   Bias factor          DIISBfac        ....   1.050
   Max. coefficient     DIISMaxC        ....  10.000
 Trust-Rad. Augm. Hess. CNVTRAH         .... off
 SOSCF                  CNVSOSCF        .... on
   Start iteration      SOSCFMaxIt      ....   150
   Startup grad/error   SOSCFStart      ....  0.003300
 Level Shifting         CNVShift        .... on
   Level shift para.    LevelShift      ....    0.2500
   Turn off err/grad.   ShiftErr        ....    0.0010
 Zerner damping         CNVZerner       .... off
 Static damping         CNVDamp         .... on
   Fraction old density DampFac         ....    0.7000
   Max. Damping (<1)    DampMax         ....    0.9800
   Min. Damping (>=0)   DampMin         ....    0.0000
   Turn off err/grad.   DampErr         ....    0.1000
 Fernandez-Rico         CNVRico         .... off

SCF Procedure:
 Maximum # iterations   MaxIter         ....   125
 SCF integral mode      SCFMode         .... Direct
   Integral package                     .... SHARK and LIBINT hybrid scheme
 Reset frequency        DirectResetFreq ....    20
 Integral Threshold     Thresh          ....  1.000e-12 Eh
 Primitive CutOff       TCut            ....  1.000e-14 Eh

Convergence Tolerance:
 Convergence Check Mode ConvCheckMode   .... Total+1el-Energy
 Convergence forced     ConvForced      .... 0
 Energy Change          TolE            ....  1.000e-09 Eh
 1-El. energy change                    ....  1.000e-06 Eh
 Orbital Gradient       TolG            ....  2.000e-06
 Orbital Rotation angle TolX            ....  2.000e-06
 DIIS Error             TolErr          ....  1.000e-08


Diagonalization of the overlap matrix:
Smallest eigenvalue                        ... 7.223e-04
Time for diagonalization                   ...    0.117 sec
Threshold for overlap eigenvalues          ... 1.000e-08
Number of eigenvalues below threshold      ... 0
Time for construction of square roots      ...    0.296 sec
Total time needed                          ...    0.414 sec

Time for model grid setup =    0.401 sec

------------------------------
INITIAL GUESS: MODEL POTENTIAL
------------------------------
Loading ZORA relativistic densities                ... done
Calculating cut-offs                               ... done
Initializing the effective Hamiltonian             ... done
Setting up the integral package (SHARK)            ... done
Starting the Coulomb interaction                   ... done (   4.5 sec)
Reading the grid                                   ... done
Mapping shells                                     ... done
Starting the XC term evaluation                    ... done (   0.4 sec)
  promolecular density results
     # of electrons  =     51.000410035
     EX              =   -175.748405925
     EC              =     -2.702313654
     EX+EC           =   -178.450719579
Transforming the Hamiltonian                       ... done (   0.1 sec)
Diagonalizing the Hamiltonian                      ... done (   0.0 sec)
Back transforming the eigenvectors                 ... done (   0.1 sec)
Now organizing SCF variables                       ... done
                      ------------------
                      INITIAL GUESS DONE (   6.6 sec)
                      ------------------
-------------------
DFT GRID GENERATION
-------------------

General Integration Accuracy     IntAcc      ... 4.959
Radial Grid Type                 RadialGrid  ... OptM3 with GC (2021)
Angular Grid (max. ang.)         AngularGrid ... 6 (Lebedev-590)
Angular grid pruning method      GridPruning ... 4 (adaptive)
Weight generation scheme         WeightScheme... Becke
Basis function cutoff            BFCut       ... 1.0000e-12
Integration weight cutoff        WCut        ... 1.0000e-14
Angular grids for H and He will be reduced by one unit
Partially contracted basis set               ... off
Rotationally invariant grid construction     ... off

Total number of grid points                  ...    65888
Total number of batches                      ...     1030
Average number of points per batch           ...       63
Average number of grid points per atom       ...    65888
Time for grid setup =    4.240 sec

--------------
SCF ITERATIONS
--------------
ITER       Energy         Delta-E        Max-DP      RMS-DP      [F,P]     Damp
               ***  Starting incremental Fock matrix formation  ***
  0  -6607.5779143733   0.000000000000 0.02225723  0.00071128  4.9668231 0.7000
  1  -6607.6080379297  -0.030123556358 0.01479930  0.00044906  3.4379327 0.7000
  2  -6607.6246492182  -0.016611288512 0.01112388  0.00027535  2.3810349 0.7000
  3  -6607.6353966086  -0.010747390365 0.00771728  0.00018120  1.6499462 0.7000
  4  -6607.6427282161  -0.007331607549 0.00536272  0.00012258  1.1437968 0.7000
  5  -6607.6477995535  -0.005071337361 0.00365672  0.00008346  0.7931593 0.7000
                      *** Initiating the SOSCF procedure ***
                      *** Re-Reading the Fockian *** 
                      *** Removing any level shift *** 
ITER      Energy       Delta-E        Grad      Rot      Max-DP    RMS-DP
  6  -6607.65132553  -0.0035259754  0.002282  0.002282  0.008269  0.000191
               *** Restarting incremental Fock matrix formation ***
  7  -6607.65948899  -0.0081634617  0.004629  0.000479  0.001230  0.000026
  8  -6607.65949586  -0.0000068700  0.000706  0.000020  0.000210  0.000005
  9  -6607.65949628  -0.0000004192  0.000049  0.000014  0.000045  0.000001
 10  -6607.65949628  -0.0000000022  0.000037  0.000008  0.000034  0.000001
 11  -6607.65949629  -0.0000000059  0.000004  0.000007  0.000010  0.000000
 12  -6607.65949629  -0.0000000001  0.000002  0.000002  0.000003  0.000000
                 **** Energy Check signals convergence ****
              ***Rediagonalizing the Fockian in SOSCF/NRSCF***

               *****************************************************
               *                     SUCCESS                       *
               *           SCF CONVERGED AFTER  13 CYCLES          *
               *****************************************************


----------------
TOTAL SCF ENERGY
----------------

Total Energy       :        -6607.65949629 Eh         -179803.55593 eV

Components:
Nuclear Repulsion  :            0.00000000 Eh               0.00000 eV
Electronic Energy  :        -6607.65949629 Eh         -179803.55593 eV
One Electron Energy:        -9035.21059862 Eh         -245860.57970 eV
Two Electron Energy:         2427.55110233 Eh           66057.02377 eV

Virial components:
Potential Energy   :       -13522.63875940 Eh         -367969.70786 eV
Kinetic Energy     :         6914.97926311 Eh          188166.15193 eV
Virial Ratio       :            1.95555738


DFT components:
N(Alpha)           :       27.000000000018 electrons
N(Beta)            :       24.000000000015 electrons
N(Total)           :       51.000000000033 electrons
E(X)               :     -169.293891433935 Eh       
E(C)               :       -2.695742546559 Eh       
E(XC)              :     -171.989633980495 Eh       
DFET-embed. en.    :        0.000000000000 Eh       

---------------
SCF CONVERGENCE
---------------

  Last Energy change         ...    4.5475e-12  Tolerance :   1.0000e-09
  Last MAX-Density change    ...    4.6795e-08  Tolerance :   1.0000e-08
  Last RMS-Density change    ...    9.4217e-10  Tolerance :   1.0000e-09
  Last Orbital Gradient      ...    4.1928e-08  Tolerance :   2.0000e-06
  Last Orbital Rotation      ...    2.9126e-09  Tolerance :   2.0000e-06

             **** THE GBW FILE WAS UPDATED (Sb_sarc-zora-tzvpp_pbe.gbw) ****
             **** DENSITY Sb_sarc-zora-tzvpp_pbe.scfp WAS UPDATED ****
             **** ENERGY FILE WAS UPDATED (Sb_sarc-zora-tzvpp_pbe.en.tmp) ****
----------------------
UHF SPIN CONTAMINATION
----------------------

Warning: in a DFT calculation there is little theoretical justification to 
         calculate <S**2> as in Hartree-Fock theory. We will do it anyways
         but you should keep in mind that the values have only limited relevance

Expectation value of <S**2>     :     3.750898
Ideal value S*(S+1) for S=1.5   :     3.750000
Deviation                       :     0.000898

             **** THE GBW FILE WAS UPDATED (Sb_sarc-zora-tzvpp_pbe.gbw) ****
             **** DENSITY Sb_sarc-zora-tzvpp_pbe.scfp WAS UPDATED ****
----------------
ORBITAL ENERGIES
----------------
                 SPIN UP ORBITALS
  NO   OCC          E(Eh)            E(eV) 
   0   1.0000   -1160.659453    -31583.1494 
   1   1.0000    -171.789935     -4674.6418 
   2   1.0000    -154.030661     -4191.3874 
   3   1.0000    -154.030661     -4191.3874 
   4   1.0000    -154.030661     -4191.3874 
   5   1.0000     -33.515870      -912.0132 
   6   1.0000     -27.779319      -755.9137 
   7   1.0000     -27.779319      -755.9137 
   8   1.0000     -27.779319      -755.9137 
   9   1.0000     -19.053740      -518.4786 
  10   1.0000     -19.053740      -518.4786 
  11   1.0000     -19.053740      -518.4786 
  12   1.0000     -19.053740      -518.4786 
  13   1.0000     -19.053740      -518.4786 
  14   1.0000      -5.508164      -149.8848 
  15   1.0000      -3.757129      -102.2367 
  16   1.0000      -3.757129      -102.2367 
  17   1.0000      -3.757129      -102.2367 
  18   1.0000      -1.222172       -33.2570 
  19   1.0000      -1.222172       -33.2570 
  20   1.0000      -1.222172       -33.2570 
  21   1.0000      -1.222172       -33.2570 
  22   1.0000      -1.222172       -33.2570 
  23   1.0000      -0.496484       -13.5100 
  24   1.0000      -0.201265        -5.4767 
  25   1.0000      -0.201265        -5.4767 
  26   1.0000      -0.201265        -5.4767 
  27   0.0000       0.022728         0.6185 
  28   0.0000       0.022728         0.6185 
  29   0.0000       0.022728         0.6185 
  30   0.0000       0.042039         1.1439 
  31   0.0000       0.230852         6.2818 
  32   0.0000       0.230852         6.2818 
  33   0.0000       0.230852         6.2818 
  34   0.0000       0.280612         7.6358 
  35   0.0000       0.280612         7.6358 
  36   0.0000       0.280612         7.6358 
  37   0.0000       0.280612         7.6358 
  38   0.0000       0.280612         7.6358 
  39   0.0000       0.626140        17.0381 
  40   0.0000       0.626140        17.0381 
  41   0.0000       0.626140        17.0381 
  42   0.0000       0.626140        17.0381 
  43   0.0000       0.626140        17.0381 
  44   0.0000       0.626140        17.0381 
  45   0.0000       0.626140        17.0381 
  46   0.0000       0.690485        18.7890 
  47   0.0000       1.042937        28.3798 
  48   0.0000       1.042937        28.3798 
  49   0.0000       1.042937        28.3798 
  50   0.0000       2.100104        57.1467 
  51   0.0000       2.100104        57.1467 
  52   0.0000       2.100104        57.1467 
  53   0.0000       2.100104        57.1467 
  54   0.0000       2.100104        57.1467 
  55   0.0000       2.714896        73.8761 
  56   0.0000       2.714896        73.8761 
  57   0.0000       2.714896        73.8761 
  58   0.0000       2.714896        73.8761 
  59   0.0000       2.714896        73.8761 
  60   0.0000       2.714896        73.8761 
  61   0.0000       2.714896        73.8761 
  62   0.0000       3.088887        84.0529 
  63   0.0000       4.543523       123.6355 
  64   0.0000       4.543523       123.6355 
  65   0.0000       4.543523       123.6355 
  66   0.0000      10.515325       286.1365 
  67   0.0000      10.515325       286.1365 
  68   0.0000      10.515325       286.1365 
  69   0.0000      10.515325       286.1365 
  70   0.0000      10.515325       286.1365 
  71   0.0000      12.483399       339.6906 
  72   0.0000      22.232180       604.9684 
  73   0.0000      22.232180       604.9684 
  74   0.0000      22.232180       604.9684 
  75   0.0000      51.790193      1409.2828 
  76   0.0000     109.312581      2974.5466 
  77   0.0000     109.312581      2974.5466 
  78   0.0000     109.312581      2974.5466 
  79   0.0000     202.837011      5519.4757 
  80   0.0000     509.044812     13851.8136 
  81   0.0000     509.044812     13851.8136 
  82   0.0000     509.044812     13851.8136 
  83   0.0000     697.220946     18972.3465 
  84   0.0000    2130.729144     57980.0877 
  85   0.0000    5980.089003    162726.4946 
  86   0.0000   20977.268176    570820.4870 

                 SPIN DOWN ORBITALS
  NO   OCC          E(Eh)            E(eV) 
   0   1.0000   -1160.657287    -31583.0904 
   1   1.0000    -171.789128     -4674.6198 
   2   1.0000    -154.028943     -4191.3406 
   3   1.0000    -154.028943     -4191.3406 
   4   1.0000    -154.028943     -4191.3406 
   5   1.0000     -33.513983      -911.9619 
   6   1.0000     -27.777155      -755.8548 
   7   1.0000     -27.777155      -755.8548 
   8   1.0000     -27.777155      -755.8548 
   9   1.0000     -19.051770      -518.4250 
  10   1.0000     -19.051770      -518.4250 
  11   1.0000     -19.051770      -518.4250 
  12   1.0000     -19.051770      -518.4250 
  13   1.0000     -19.051770      -518.4250 
  14   1.0000      -5.503715      -149.7637 
  15   1.0000      -3.752365      -102.1070 
  16   1.0000      -3.752365      -102.1070 
  17   1.0000      -3.752365      -102.1070 
  18   1.0000      -1.212054       -32.9817 
  19   1.0000      -1.212054       -32.9817 
  20   1.0000      -1.212054       -32.9817 
  21   1.0000      -1.212054       -32.9817 
  22   1.0000      -1.212054       -32.9817 
  23   1.0000      -0.429241       -11.6802 
  24   0.0000      -0.130002        -3.5375 
  25   0.0000      -0.130002        -3.5375 
  26   0.0000      -0.130002        -3.5375 
  27   0.0000       0.056527         1.5382 
  28   0.0000       0.056527         1.5382 
  29   0.0000       0.056527         1.5382 
  30   0.0000       0.087035         2.3683 
  31   0.0000       0.272815         7.4237 
  32   0.0000       0.272815         7.4237 
  33   0.0000       0.272815         7.4237 
  34   0.0000       0.360761         9.8168 
  35   0.0000       0.360761         9.8168 
  36   0.0000       0.360761         9.8168 
  37   0.0000       0.360761         9.8168 
  38   0.0000       0.360761         9.8168 
  39   0.0000       0.705173        19.1887 
  40   0.0000       0.705173        19.1887 
  41   0.0000       0.705173        19.1887 
  42   0.0000       0.705173        19.1887 
  43   0.0000       0.705173        19.1887 
  44   0.0000       0.705173        19.1887 
  45   0.0000       0.705173        19.1887 
  46   0.0000       0.748784        20.3754 
  47   0.0000       1.096305        29.8320 
  48   0.0000       1.096305        29.8320 
  49   0.0000       1.096305        29.8320 
  50   0.0000       2.141551        58.2746 
  51   0.0000       2.141551        58.2746 
  52   0.0000       2.141551        58.2746 
  53   0.0000       2.141551        58.2746 
  54   0.0000       2.141551        58.2746 
  55   0.0000       2.724787        74.1452 
  56   0.0000       2.724787        74.1452 
  57   0.0000       2.724787        74.1452 
  58   0.0000       2.724787        74.1452 
  59   0.0000       2.724787        74.1452 
  60   0.0000       2.724787        74.1452 
  61   0.0000       2.724787        74.1452 
  62   0.0000       3.132541        85.2408 
  63   0.0000       4.573825       124.4601 
  64   0.0000       4.573825       124.4601 
  65   0.0000       4.573825       124.4601 
  66   0.0000      10.525789       286.4213 
  67   0.0000      10.525789       286.4213 
  68   0.0000      10.525789       286.4213 
  69   0.0000      10.525789       286.4213 
  70   0.0000      10.525789       286.4213 
  71   0.0000      12.496965       340.0597 
  72   0.0000      22.239024       605.1546 
  73   0.0000      22.239024       605.1546 
  74   0.0000      22.239024       605.1546 
  75   0.0000      51.794869      1409.4100 
  76   0.0000     109.315482      2974.6255 
  77   0.0000     109.315482      2974.6255 
  78   0.0000     109.315482      2974.6255 
  79   0.0000     202.839178      5519.5346 
  80   0.0000     509.047257     13851.8801 
  81   0.0000     509.047257     13851.8801 
  82   0.0000     509.047257     13851.8801 
  83   0.0000     697.223043     18972.4035 
  84   0.0000    2130.731989     57980.1651 
  85   0.0000    5980.091272    162726.5564 
  86   0.0000   20977.268832    570820.5049 

                    ********************************
                    * MULLIKEN POPULATION ANALYSIS *
                    ********************************

--------------------------------------------
MULLIKEN ATOMIC CHARGES AND SPIN POPULATIONS
--------------------------------------------
   0 Sb:   -0.000000    3.000000
Sum of atomic charges         :   -0.0000000
Sum of atomic spin populations:    3.0000000

-----------------------------------------------------
MULLIKEN REDUCED ORBITAL CHARGES AND SPIN POPULATIONS
-----------------------------------------------------
CHARGE
  0 Sbs       :    10.000000  s :    10.000000
      pz      :     7.000000  p :    21.000000
      px      :     7.000000
      py      :     7.000000
      dz2     :     4.000000  d :    20.000000
      dxz     :     4.000000
      dyz     :     4.000000
      dx2y2   :     4.000000
      dxy     :     4.000000
      f0      :     0.000000  f :     0.000000
      f+1     :     0.000000
      f-1     :     0.000000
      f+2     :     0.000000
      f-2     :     0.000000
      f+3     :     0.000000
      f-3     :     0.000000

SPIN
  0 Sbs       :    -0.000000  s :    -0.000000
      pz      :     1.000000  p :     3.000000
      px      :     1.000000
      py      :     1.000000
      dz2     :     0.000000  d :     0.000000
      dxz     :     0.000000
      dyz     :     0.000000
      dx2y2   :     0.000000
      dxy     :     0.000000
      f0      :     0.000000  f :     0.000000
      f+1     :     0.000000
      f-1     :     0.000000
      f+2     :     0.000000
      f-2     :     0.000000
      f+3     :     0.000000
      f-3     :     0.000000


                     *******************************
                     * LOEWDIN POPULATION ANALYSIS *
                     *******************************

-------------------------------------------
LOEWDIN ATOMIC CHARGES AND SPIN POPULATIONS
-------------------------------------------
   0 Sb:    0.000000    3.000000

----------------------------------------------------
LOEWDIN REDUCED ORBITAL CHARGES AND SPIN POPULATIONS
----------------------------------------------------
CHARGE
  0 Sbs       :    10.000000  s :    10.000000
      pz      :     7.000000  p :    21.000000
      px      :     7.000000
      py      :     7.000000
      dz2     :     4.000000  d :    20.000000
      dxz     :     4.000000
      dyz     :     4.000000
      dx2y2   :     4.000000
      dxy     :     4.000000
      f0      :     0.000000  f :     0.000000
      f+1     :     0.000000
      f-1     :     0.000000
      f+2     :     0.000000
      f-2     :     0.000000
      f+3     :     0.000000
      f-3     :     0.000000

SPIN
  0 Sbs       :    -0.000000  s :    -0.000000
      pz      :     1.000000  p :     3.000000
      px      :     1.000000
      py      :     1.000000
      dz2     :     0.000000  d :     0.000000
      dxz     :     0.000000
      dyz     :     0.000000
      dx2y2   :     0.000000
      dxy     :     0.000000
      f0      :     0.000000  f :     0.000000
      f+1     :     0.000000
      f-1     :     0.000000
      f+2     :     0.000000
      f-2     :     0.000000
      f+3     :     0.000000
      f-3     :     0.000000


                      *****************************
                      * MAYER POPULATION ANALYSIS *
                      *****************************

  NA   - Mulliken gross atomic population
  ZA   - Total nuclear charge
  QA   - Mulliken gross atomic charge
  VA   - Mayer's total valence
  BVA  - Mayer's bonded valence
  FA   - Mayer's free valence

  ATOM       NA         ZA         QA         VA         BVA        FA
  0 Sb    51.0000    51.0000    -0.0000     3.0018     0.0000     3.0018

  Mayer bond orders larger than 0.100000


-------
TIMINGS
-------

Total SCF time: 0 days 0 hours 0 min 37 sec 

Total time                  ....      37.159 sec
Sum of individual times     ....      30.207 sec  ( 81.3%)

Fock matrix formation       ....      17.224 sec  ( 46.4%)
  XC integration            ....       4.344 sec  ( 25.2% of F)
    Basis function eval.    ....       0.063 sec  (  1.5% of XC)
    Density eval.           ....       0.109 sec  (  2.5% of XC)
    XC-Functional eval.     ....       0.074 sec  (  1.7% of XC)
    XC-Potential eval.      ....       0.079 sec  (  1.8% of XC)
Diagonalization             ....       0.141 sec  (  0.4%)
Density matrix formation    ....       0.005 sec  (  0.0%)
Population analysis         ....       0.248 sec  (  0.7%)
Initial guess               ....       6.243 sec  ( 16.8%)
Orbital Transformation      ....       0.000 sec  (  0.0%)
Orbital Orthonormalization  ....       0.000 sec  (  0.0%)
DIIS solution               ....       0.030 sec  (  0.1%)
SOSCF solution              ....       1.675 sec  (  4.5%)
Grid generation             ....       4.641 sec  ( 12.5%)

Maximum memory used throughout the entire SCF-calculation: 230.5 MB

-------------------------   --------------------
FINAL SINGLE POINT ENERGY     -6607.659496287913
-------------------------   --------------------


                            ***************************************
                            *     ORCA property calculations      *
                            ***************************************

                                    ---------------------
                                    Active property flags
                                    ---------------------
   (+) Dipole Moment


------------------------------------------------------------------------------
                       ORCA ELECTRIC PROPERTIES CALCULATION
------------------------------------------------------------------------------

Dipole Moment Calculation                       ... on
Quadrupole Moment Calculation                   ... off
Polarizability Calculation                      ... off
GBWName                                         ... Sb_sarc-zora-tzvpp_pbe.gbw
Electron density                                ... Sb_sarc-zora-tzvpp_pbe.scfp
The origin for moment calculation is the CENTER OF MASS  = ( 0.000000,  0.000000  0.000000)

-------------
DIPOLE MOMENT
-------------
                                X             Y             Z
Electronic contribution:      0.00000      -0.00000      -0.00000
Nuclear contribution   :      0.00000       0.00000       0.00000
                        -----------------------------------------
Total Dipole Moment    :      0.00000      -0.00000      -0.00000
                        -----------------------------------------
Magnitude (a.u.)       :      0.00000
Magnitude (Debye)      :      0.00000



--------------------
Rotational spectrum 
--------------------
 
Rotational constants in cm-1:     0.000000     0.000000     0.000000 
Rotational constants in MHz :     0.000000     0.000000     0.000000 

 Dipole components along the rotational axes: 
x,y,z [a.u.] :     0.000000    -0.000000    -0.000000 
x,y,z [Debye]:     0.000000    -0.000000    -0.000000 

 

Timings for individual modules:

Sum of individual times         ...       62.318 sec (=   1.039 min)
GTO integral calculation        ...       13.490 sec (=   0.225 min)  21.6 %
Relativistic integrals          ...        8.301 sec (=   0.138 min)  13.3 %
SCF iterations                  ...       40.527 sec (=   0.675 min)  65.0 %
                             ****ORCA TERMINATED NORMALLY****
TOTAL RUN TIME: 0 days 0 hours 1 minutes 6 seconds 869 msec
