
                                 *****************
                                 * O   R   C   A *
                                 *****************

                                            #,                                       
                                            ###                                      
                                            ####                                     
                                            #####                                    
                                            ######                                   
                                           ########,                                 
                                     ,,################,,,,,                         
                               ,,#################################,,                 
                          ,,##########################################,,             
                       ,#########################################, ''#####,          
                    ,#############################################,,   '####,        
                  ,##################################################,,,,####,       
                ,###########''''           ''''###############################       
              ,#####''   ,,,,##########,,,,          '''####'''          '####       
            ,##' ,,,,###########################,,,                        '##       
           ' ,,###''''                  '''############,,,                           
         ,,##''                                '''############,,,,        ,,,,,,###''
      ,#''                                            '''#######################'''  
     '                                                          ''''####''''         
             ,#######,   #######,   ,#######,      ##                                
            ,#'     '#,  ##    ##  ,#'     '#,    #''#        ######   ,####,        
            ##       ##  ##   ,#'  ##            #'  '#       #        #'  '#        
            ##       ##  #######   ##           ,######,      #####,   #    #        
            '#,     ,#'  ##    ##  '#,     ,#' ,#      #,         ##   #,  ,#        
             '#######'   ##     ##  '#######'  #'      '#     #####' # '####'        



                  #######################################################
                  #                        -***-                        #
                  #          Department of theory and spectroscopy      #
                  #    Directorship and core code : Frank Neese         #
                  #        Max Planck Institute fuer Kohlenforschung    #
                  #                Kaiser Wilhelm Platz 1               #
                  #                 D-45470 Muelheim/Ruhr               #
                  #                      Germany                        #
                  #                                                     #
                  #                  All rights reserved                #
                  #                        -***-                        #
                  #######################################################


                         Program Version 5.0.1 -  RELEASE  -


 With contributions from (in alphabetic order):
   Daniel Aravena         : Magnetic Suceptibility
   Michael Atanasov       : Ab Initio Ligand Field Theory (pilot matlab implementation)
   Alexander A. Auer      : GIAO ZORA, VPT2 properties, NMR spectrum
   Ute Becker             : Parallelization
   Giovanni Bistoni       : ED, misc. LED, open-shell LED, HFLD
   Martin Brehm           : Molecular dynamics
   Dmytro Bykov           : SCF Hessian
   Vijay G. Chilkuri      : MRCI spin determinant printing, contributions to CSF-ICE
   Dipayan Datta          : RHF DLPNO-CCSD density
   Achintya Kumar Dutta   : EOM-CC, STEOM-CC
   Dmitry Ganyushin       : Spin-Orbit,Spin-Spin,Magnetic field MRCI
   Miquel Garcia          : C-PCM and meta-GGA Hessian, CC/C-PCM, Gaussian charge scheme
   Yang Guo               : DLPNO-NEVPT2, F12-NEVPT2, CIM, IAO-localization
   Andreas Hansen         : Spin unrestricted coupled pair/coupled cluster methods
   Benjamin Helmich-Paris : MC-RPA, TRAH-SCF, COSX integrals
   Lee Huntington         : MR-EOM, pCC
   Robert Izsak           : Overlap fitted RIJCOSX, COSX-SCS-MP3, EOM
   Marcus Kettner         : VPT2
   Christian Kollmar      : KDIIS, OOCD, Brueckner-CCSD(T), CCSD density, CASPT2, CASPT2-K
   Simone Kossmann        : Meta GGA functionals, TD-DFT gradient, OOMP2, MP2 Hessian
   Martin Krupicka        : Initial AUTO-CI
   Lucas Lang             : DCDCAS
   Marvin Lechner         : AUTO-CI (C++ implementation), FIC-MRCC
   Dagmar Lenk            : GEPOL surface, SMD
   Dimitrios Liakos       : Extrapolation schemes; Compound Job, initial MDCI parallelization
   Dimitrios Manganas     : Further ROCIS development; embedding schemes
   Dimitrios Pantazis     : SARC Basis sets
   Anastasios Papadopoulos: AUTO-CI, single reference methods and gradients
   Taras Petrenko         : DFT Hessian,TD-DFT gradient, ASA, ECA, R-Raman, ABS, FL, XAS/XES, NRVS
   Peter Pinski           : DLPNO-MP2, DLPNO-MP2 Gradient
   Christoph Reimann      : Effective Core Potentials
   Marius Retegan         : Local ZFS, SOC
   Christoph Riplinger    : Optimizer, TS searches, QM/MM, DLPNO-CCSD(T), (RO)-DLPNO pert. Triples
   Tobias Risthaus        : Range-separated hybrids, TD-DFT gradient, RPA, STAB
   Michael Roemelt        : Original ROCIS implementation
   Masaaki Saitow         : Open-shell DLPNO-CCSD energy and density
   Barbara Sandhoefer     : DKH picture change effects
   Avijit Sen             : IP-ROCIS
   Kantharuban Sivalingam : CASSCF convergence, NEVPT2, FIC-MRCI
   Bernardo de Souza      : ESD, SOC TD-DFT
   Georgi Stoychev        : AutoAux, RI-MP2 NMR, DLPNO-MP2 response
   Willem Van den Heuvel  : Paramagnetic NMR
   Boris Wezisla          : Elementary symmetry handling
   Frank Wennmohs         : Technical directorship


 We gratefully acknowledge several colleagues who have allowed us to
 interface, adapt or use parts of their codes:
   Stefan Grimme, W. Hujo, H. Kruse, P. Pracht,  : VdW corrections, initial TS optimization,
                  C. Bannwarth, S. Ehlert          DFT functionals, gCP, sTDA/sTD-DF
   Ed Valeev, F. Pavosevic, A. Kumar             : LibInt (2-el integral package), F12 methods
   Garnet Chan, S. Sharma, J. Yang, R. Olivares  : DMRG
   Ulf Ekstrom                                   : XCFun DFT Library
   Mihaly Kallay                                 : mrcc  (arbitrary order and MRCC methods)
   Jiri Pittner, Ondrej Demel                    : Mk-CCSD
   Frank Weinhold                                : gennbo (NPA and NBO analysis)
   Christopher J. Cramer and Donald G. Truhlar   : smd solvation model
   Lars Goerigk                                  : TD-DFT with DH, B97 family of functionals
   V. Asgeirsson, H. Jonsson                     : NEB implementation
   FAccTs GmbH                                   : IRC, NEB, NEB-TS, DLPNO-Multilevel, CI-OPT
                                                   MM, QMMM, 2- and 3-layer-ONIOM, Crystal-QMMM,
                                                   LR-CPCM, SF, NACMEs, symmetry and pop. for TD-DFT,
                                                   nearIR, NL-DFT gradient (VV10), updates on ESD,
                                                   ML-optimized integration grids
   S Lehtola, MJT Oliveira, MAL Marques          : LibXC Library
   Liviu Ungur et al                             : ANISO software


 Your calculation uses the libint2 library for the computation of 2-el integrals
 For citations please refer to: http://libint.valeyev.net

 Your ORCA version has been built with support for libXC version: 5.1.0
 For citations please refer to: https://tddft.org/programs/libxc/

 This ORCA versions uses:
   CBLAS   interface :  Fast vector & matrix operations
   LAPACKE interface :  Fast linear algebra routines
   SCALAPACK package :  Parallel linear algebra routines
   Shared memory     :  Shared parallel matrices
   BLAS/LAPACK       :  OpenBLAS 0.3.15  USE64BITINT DYNAMIC_ARCH NO_AFFINITY Haswell SINGLE_THREADED
        Core in use  :  Haswell
   Copyright (c) 2011-2014, The OpenBLAS Project


SCAN-COORDS

Reading of a custom basis requested
Basis file         : Sb_sapporo-qzp-2012-diffuse.basis
READING GTO-BASIS: ANTIMONY
Basis successfully read

================================================================================

----- Orbital basis set information -----
================================================================================
                                        WARNINGS
                       Please study these warnings very carefully!
================================================================================


INFO   : the flag for use of the SHARK integral package has been found!

================================================================================
                                       INPUT FILE
================================================================================
NAME = Sb_sapporo-qzp-2012-diffuse_pbe.inp
|  1> !uks pbe nori verytightscf soscf notrah defgrid3
|  2> 
|  3> %pal
|  4>   nprocs 32
|  5> end
|  6> %coords
|  7>   charge 0
|  8>   mult 4
|  9>   units bohrs
| 10>   coords
| 11>     Sb 0.0 0.0 0.0
| 12>   end
| 13> end
| 14> %basis
| 15>   gtoname "Sb_sapporo-qzp-2012-diffuse.basis"
| 16>   delECP Sb
| 17> end
| 18> %rel
| 19>   method zora
| 20>   modelpot 1, 0, 0, 0
| 21>   c 137.035999084
| 22> endd                         ****END OF INPUT****
================================================================================

                       ****************************
                       * Single Point Calculation *
                       ****************************

---------------------------------
CARTESIAN COORDINATES (ANGSTROEM)
---------------------------------
  Sb     0.000000    0.000000    0.000000

----------------------------
CARTESIAN COORDINATES (A.U.)
----------------------------
  NO LB      ZA    FRAG     MASS         X           Y           Z
   0 Sb   51.0000    0   121.750    0.000000    0.000000    0.000000

--------------------------------
INTERNAL COORDINATES (ANGSTROEM)
--------------------------------
 Sb     0   0   0     0.000000000000     0.00000000     0.00000000

---------------------------
INTERNAL COORDINATES (A.U.)
---------------------------
 Sb     0   0   0     0.000000000000     0.00000000     0.00000000

---------------------
BASIS SET INFORMATION
---------------------
There are 1 groups of distinct atoms

 Group   1 Type Sb  : 24s18p14d6f5g2h contracted to 11s10p8d6f4g2h pattern {74322111111/7221111111/71111111/111111/2111/11}

Atom   0Sb   basis set group =>   1


           ************************************************************
           *        Program running with 32 parallel MPI-processes    *
           *              working on a common directory               *
           ************************************************************
------------------------------------------------------------------------------
                           ORCA GTO INTEGRAL CALCULATION
------------------------------------------------------------------------------
------------------------------------------------------------------------------
                   ___                                                        
                  /   \      - P O W E R E D   B Y -                         
                 /     \                                                     
                 |  |  |   _    _      __       _____    __    __             
                 |  |  |  | |  | |    /  \     |  _  \  |  |  /  |          
                  \  \/   | |  | |   /    \    | | | |  |  | /  /          
                 / \  \   | |__| |  /  /\  \   | |_| |  |  |/  /          
                |  |  |   |  __  | /  /__\  \  |    /   |      \           
                |  |  |   | |  | | |   __   |  |    \   |  |\   \          
                \     /   | |  | | |  |  |  |  | |\  \  |  | \   \       
                 \___/    |_|  |_| |__|  |__|  |_| \__\ |__|  \__/        
                                                                              
                      - O R C A' S   B I G   F R I E N D -                    
                                      &                                       
                       - I N T E G R A L  F E E D E R -                       
                                                                              
 v1 FN, 2020, v2 2021                                                         
------------------------------------------------------------------------------


Reading SHARK input file Sb_sapporo-qzp-2012-diffuse_pbe.SHARKINP.tmp ... ok
----------------------
SHARK INTEGRAL PACKAGE
----------------------

Number of atoms                             ...      1
Number of basis functions                   ...    181
Number of shells                            ...     41
Maximum angular momentum                    ...      5
Integral batch strategy                     ... SHARK/LIBINT Hybrid
RI-J (if used) integral strategy            ... SPLIT-RIJ (Revised 2003 algorithm where possible)
Printlevel                                  ...      1
Contraction scheme used                     ... SEGMENTED contraction
Coulomb Range Separation                    ... NOT USED
Exchange Range Separation                   ... NOT USED
Finite Nucleus Model                        ... NOT USED
Auxiliary Coulomb fitting basis             ... NOT available
Auxiliary J/K fitting basis                 ... NOT available
Auxiliary Correlation fitting basis         ... NOT available
Auxiliary 'external' fitting basis          ... NOT available
Integral threshold                          ...     1.000000e-12
Primitive cut-off                           ...     1.000000e-14
Primitive pair pre-selection threshold      ...     1.000000e-14

Calculating pre-screening integrals         ... done (  2.2 sec) Dimension = 41
Organizing shell pair data                  ... done (  0.5 sec)
Shell pair information
Total number of shell pairs                 ...       861
Shell pairs after pre-screening             ...       861
Total number of primitive shell pairs       ...      2492
Primitive shell pairs kept                  ...      2492
          la=0 lb=0:     66 shell pairs
          la=1 lb=0:    110 shell pairs
          la=1 lb=1:     55 shell pairs
          la=2 lb=0:     88 shell pairs
          la=2 lb=1:     80 shell pairs
          la=2 lb=2:     36 shell pairs
          la=3 lb=0:     66 shell pairs
          la=3 lb=1:     60 shell pairs
          la=3 lb=2:     48 shell pairs
          la=3 lb=3:     21 shell pairs
          la=4 lb=0:     44 shell pairs
          la=4 lb=1:     40 shell pairs
          la=4 lb=2:     32 shell pairs
          la=4 lb=3:     24 shell pairs
          la=4 lb=4:     10 shell pairs
          la=5 lb=0:     22 shell pairs
          la=5 lb=1:     20 shell pairs
          la=5 lb=2:     16 shell pairs
          la=5 lb=3:     12 shell pairs
          la=5 lb=4:      8 shell pairs
          la=5 lb=5:      3 shell pairs

Calculating one electron integrals          ... done (  1.4 sec)
Calculating Nuclear repulsion               ... done (  0.0 sec) ENN=      0.000000000000 Eh

SHARK setup successfully completed in   4.8 seconds

Maximum memory used throughout the entire GTOINT-calculation: 39.4 MB


           ************************************************************
           *        Program running with 32 parallel MPI-processes    *
           *              working on a common directory               *
           ************************************************************
------------------------------------------------------------------------------
                          ORCA RELATIVISTIC HAMILTONIAN
------------------------------------------------------------------------------

Relativistic Method            ... ZORA(MP)
Treatment of potential         ... Van Wuellen
Nucleus model                  ... Point Nucleus
Speed of light used            ... 137.03599908400000


            *************************************************
            *         ZERO ORDER REGULAR APPROXIMATION      *
            *                     ZORA(MP)                  *
            *            Programmed by FN according to      *
            *                   C. van Wuellen              *
            *       J. Chem. Phys. (1998) vol 109, 392-399  *
            *************************************************

Terms included in model potential: +V(e,N)
Basis function cutoff value   ... 1.000000e-12
Loading the fitted atomic densities  (DKH4)  ... done
Calculating the cutoffs                      ... done
Number of fit functions                      ... 29
Setting up the integration grid ... done

Maximum memory used throughout the entire REL-calculation: 13.4 MB


           ************************************************************
           *        Program running with 32 parallel MPI-processes    *
           *              working on a common directory               *
           ************************************************************
-------------------------------------------------------------------------------
                                 ORCA SCF
-------------------------------------------------------------------------------

------------
SCF SETTINGS
------------
Hamiltonian:
 Density Functional     Method          .... DFT(GTOs)
 Exchange Functional    Exchange        .... PBE
   PBE kappa parameter   XKappa         ....  0.804000
   PBE mue parameter    XMuePBE         ....  0.219520
 Correlation Functional Correlation     .... PBE
   PBE beta parameter  CBetaPBE         ....  0.066725
 LDA part of GGA corr.  LDAOpt          .... PW91-LDA
 Gradients option       PostSCFGGA      .... off
   Density functional embedding theory  .... OFF
   NL short-range parameter             ....  6.400000

Relativistic Settings:
 Scalar relativistic method             .... ZORA
 Speed of light used       Velit        ....       137.035999
Orbital energies will be scaled


General Settings:
 Integral files         IntName         .... Sb_sapporo-qzp-2012-diffuse_pbe
 Hartree-Fock type      HFTyp           .... UHF
 Total Charge           Charge          ....    0
 Multiplicity           Mult            ....    4
 Number of Electrons    NEL             ....   51
 Basis Dimension        Dim             ....  181
 Nuclear Repulsion      ENuc            ....      0.0000000000 Eh

Convergence Acceleration:
 DIIS                   CNVDIIS         .... on
   Start iteration      DIISMaxIt       ....    12
   Startup error        DIISStart       ....  0.200000
   # of expansion vecs  DIISMaxEq       ....     5
   Bias factor          DIISBfac        ....   1.050
   Max. coefficient     DIISMaxC        ....  10.000
 Trust-Rad. Augm. Hess. CNVTRAH         .... off
 SOSCF                  CNVSOSCF        .... on
   Start iteration      SOSCFMaxIt      ....   150
   Startup grad/error   SOSCFStart      ....  0.003300
 Level Shifting         CNVShift        .... on
   Level shift para.    LevelShift      ....    0.2500
   Turn off err/grad.   ShiftErr        ....    0.0010
 Zerner damping         CNVZerner       .... off
 Static damping         CNVDamp         .... on
   Fraction old density DampFac         ....    0.7000
   Max. Damping (<1)    DampMax         ....    0.9800
   Min. Damping (>=0)   DampMin         ....    0.0000
   Turn off err/grad.   DampErr         ....    0.1000
 Fernandez-Rico         CNVRico         .... off

SCF Procedure:
 Maximum # iterations   MaxIter         ....   125
 SCF integral mode      SCFMode         .... Direct
   Integral package                     .... SHARK and LIBINT hybrid scheme
 Reset frequency        DirectResetFreq ....    20
 Integral Threshold     Thresh          ....  1.000e-12 Eh
 Primitive CutOff       TCut            ....  1.000e-14 Eh

Convergence Tolerance:
 Convergence Check Mode ConvCheckMode   .... Total+1el-Energy
 Convergence forced     ConvForced      .... 0
 Energy Change          TolE            ....  1.000e-09 Eh
 1-El. energy change                    ....  1.000e-06 Eh
 Orbital Gradient       TolG            ....  2.000e-06
 Orbital Rotation angle TolX            ....  2.000e-06
 DIIS Error             TolErr          ....  1.000e-08


Diagonalization of the overlap matrix:
Smallest eigenvalue                        ... 6.622e-04
Time for diagonalization                   ...    0.030 sec
Threshold for overlap eigenvalues          ... 1.000e-08
Number of eigenvalues below threshold      ... 0
Time for construction of square roots      ...    0.136 sec
Total time needed                          ...    0.167 sec

Time for model grid setup =    0.369 sec

------------------------------
INITIAL GUESS: MODEL POTENTIAL
------------------------------
Loading ZORA relativistic densities                ... done
Calculating cut-offs                               ... done
Initializing the effective Hamiltonian             ... done
Setting up the integral package (SHARK)            ... done
Starting the Coulomb interaction                   ... done (   0.8 sec)
Reading the grid                                   ... done
Mapping shells                                     ... done
Starting the XC term evaluation                    ... done (   0.1 sec)
  promolecular density results
     # of electrons  =     51.000411659
     EX              =   -175.747991296
     EC              =     -2.702385484
     EX+EC           =   -178.450376780
Transforming the Hamiltonian                       ... done (   0.0 sec)
Diagonalizing the Hamiltonian                      ... done (   0.0 sec)
Back transforming the eigenvectors                 ... done (   0.0 sec)
Now organizing SCF variables                       ... done
                      ------------------
                      INITIAL GUESS DONE (   1.4 sec)
                      ------------------
-------------------
DFT GRID GENERATION
-------------------

General Integration Accuracy     IntAcc      ... 4.959
Radial Grid Type                 RadialGrid  ... OptM3 with GC (2021)
Angular Grid (max. ang.)         AngularGrid ... 6 (Lebedev-590)
Angular grid pruning method      GridPruning ... 4 (adaptive)
Weight generation scheme         WeightScheme... Becke
Basis function cutoff            BFCut       ... 1.0000e-12
Integration weight cutoff        WCut        ... 1.0000e-14
Angular grids for H and He will be reduced by one unit
Partially contracted basis set               ... off
Rotationally invariant grid construction     ... off

Total number of grid points                  ...    35830
Total number of batches                      ...      560
Average number of points per batch           ...       63
Average number of grid points per atom       ...    35830
Time for grid setup =    1.157 sec

--------------
SCF ITERATIONS
--------------
ITER       Energy         Delta-E        Max-DP      RMS-DP      [F,P]     Damp
               ***  Starting incremental Fock matrix formation  ***
  0  -6565.3057592329   0.000000000000 0.09789095  0.00118915  0.5525221 0.7000
  1  -6565.3459482433  -0.040189010459 0.05674913  0.00072313  0.3702139 0.7000
  2  -6565.3676481055  -0.021699862113 0.03280284  0.00043564  0.2495401 0.7000
                               ***Turning on DIIS***
  3  -6565.3815973451  -0.013949239684 0.01967639  0.00027226  0.1692146 0.7000
  4  -6565.3910991163  -0.009501771163 0.01032056  0.00015757  0.1152107 0.7000
  5  -6565.3976608492  -0.006561732938 0.02480661  0.00036716  0.0802810 0.0000
                      *** Initiating the SOSCF procedure ***
                           *** Shutting down DIIS ***
                      *** Re-Reading the Fockian *** 
                      *** Removing any level shift *** 
ITER      Energy       Delta-E        Grad      Rot      Max-DP    RMS-DP
  6  -6565.41283731  -0.0151764607  0.000566  0.000566  0.000749  0.000009
               *** Restarting incremental Fock matrix formation ***
  7  -6565.41283761  -0.0000003040  0.000043  0.000005  0.000063  0.000001
  8  -6565.41283762  -0.0000000026  0.000020  0.000003  0.000015  0.000000
  9  -6565.41283762  -0.0000000013  0.000003  0.000003  0.000009  0.000000
 10  -6565.41283762  -0.0000000001  0.000003  0.000001  0.000003  0.000000
                  ***Gradient check signals convergence***
              ***Rediagonalizing the Fockian in SOSCF/NRSCF***

               *****************************************************
               *                     SUCCESS                       *
               *           SCF CONVERGED AFTER  11 CYCLES          *
               *****************************************************


----------------
TOTAL SCF ENERGY
----------------

Total Energy       :        -6565.41283762 Eh         -178653.96590 eV

Components:
Nuclear Repulsion  :            0.00000000 Eh               0.00000 eV
Electronic Energy  :        -6565.41283762 Eh         -178653.96590 eV
One Electron Energy:        -8978.67363135 Eh         -244322.13061 eV
Two Electron Energy:         2413.26079373 Eh           65668.16470 eV

Virial components:
Potential Energy   :       -12767.52592407 Eh         -347422.04299 eV
Kinetic Energy     :         6202.11308645 Eh          168768.07709 eV
Virial Ratio       :            2.05857677


DFT components:
N(Alpha)           :       27.000000006354 electrons
N(Beta)            :       24.000000006380 electrons
N(Total)           :       51.000000012734 electrons
E(X)               :     -165.243804268397 Eh       
E(C)               :       -2.707947913992 Eh       
E(XC)              :     -167.951752182389 Eh       
DFET-embed. en.    :        0.000000000000 Eh       

---------------
SCF CONVERGENCE
---------------

  Last Energy change         ...   -3.0923e-11  Tolerance :   1.0000e-09
  Last MAX-Density change    ...    1.5605e-07  Tolerance :   1.0000e-08
  Last RMS-Density change    ...    2.7305e-09  Tolerance :   1.0000e-09
  Last Orbital Gradient      ...    1.0654e-07  Tolerance :   2.0000e-06
  Last Orbital Rotation      ...    1.4882e-07  Tolerance :   2.0000e-06

             **** THE GBW FILE WAS UPDATED (Sb_sapporo-qzp-2012-diffuse_pbe.gbw) ****
             **** DENSITY Sb_sapporo-qzp-2012-diffuse_pbe.scfp WAS UPDATED ****
             **** ENERGY FILE WAS UPDATED (Sb_sapporo-qzp-2012-diffuse_pbe.en.tmp) ****
----------------------
UHF SPIN CONTAMINATION
----------------------

Warning: in a DFT calculation there is little theoretical justification to 
         calculate <S**2> as in Hartree-Fock theory. We will do it anyways
         but you should keep in mind that the values have only limited relevance

Expectation value of <S**2>     :     3.750848
Ideal value S*(S+1) for S=1.5   :     3.750000
Deviation                       :     0.000848

             **** THE GBW FILE WAS UPDATED (Sb_sapporo-qzp-2012-diffuse_pbe.gbw) ****
             **** DENSITY Sb_sapporo-qzp-2012-diffuse_pbe.scfp WAS UPDATED ****
----------------
ORBITAL ENERGIES
----------------
                 SPIN UP ORBITALS
  NO   OCC          E(Eh)            E(eV) 
   0   1.0000   -1149.305009    -31274.1792 
   1   1.0000    -169.749387     -4619.1157 
   2   1.0000    -154.509804     -4204.4255 
   3   1.0000    -154.509804     -4204.4255 
   4   1.0000    -154.509804     -4204.4255 
   5   1.0000     -32.985596      -897.5837 
   6   1.0000     -27.770559      -755.6753 
   7   1.0000     -27.770559      -755.6753 
   8   1.0000     -27.770559      -755.6753 
   9   1.0000     -19.070881      -518.9451 
  10   1.0000     -19.070881      -518.9451 
  11   1.0000     -19.070881      -518.9451 
  12   1.0000     -19.070881      -518.9451 
  13   1.0000     -19.070881      -518.9451 
  14   1.0000      -5.409625      -147.2034 
  15   1.0000      -3.757011      -102.2335 
  16   1.0000      -3.757011      -102.2335 
  17   1.0000      -3.757011      -102.2335 
  18   1.0000      -1.234718       -33.5984 
  19   1.0000      -1.234718       -33.5984 
  20   1.0000      -1.234718       -33.5984 
  21   1.0000      -1.234718       -33.5984 
  22   1.0000      -1.234718       -33.5984 
  23   1.0000      -0.487747       -13.2723 
  24   1.0000      -0.202054        -5.4982 
  25   1.0000      -0.202054        -5.4982 
  26   1.0000      -0.202054        -5.4982 
  27   0.0000      -0.022730        -0.6185 
  28   0.0000       0.012360         0.3363 
  29   0.0000       0.012360         0.3363 
  30   0.0000       0.012360         0.3363 
  31   0.0000       0.043188         1.1752 
  32   0.0000       0.043188         1.1752 
  33   0.0000       0.043188         1.1752 
  34   0.0000       0.043188         1.1752 
  35   0.0000       0.043188         1.1752 
  36   0.0000       0.046854         1.2750 
  37   0.0000       0.146185         3.9779 
  38   0.0000       0.146185         3.9779 
  39   0.0000       0.146185         3.9779 
  40   0.0000       0.176045         4.7904 
  41   0.0000       0.176045         4.7904 
  42   0.0000       0.176045         4.7904 
  43   0.0000       0.176045         4.7904 
  44   0.0000       0.176045         4.7904 
  45   0.0000       0.176045         4.7904 
  46   0.0000       0.176045         4.7904 
  47   0.0000       0.235832         6.4173 
  48   0.0000       0.235832         6.4173 
  49   0.0000       0.235832         6.4173 
  50   0.0000       0.235832         6.4173 
  51   0.0000       0.235832         6.4173 
  52   0.0000       0.283807         7.7228 
  53   0.0000       0.316641         8.6162 
  54   0.0000       0.316641         8.6162 
  55   0.0000       0.316641         8.6162 
  56   0.0000       0.316641         8.6162 
  57   0.0000       0.316641         8.6162 
  58   0.0000       0.316641         8.6162 
  59   0.0000       0.316641         8.6162 
  60   0.0000       0.316641         8.6162 
  61   0.0000       0.316641         8.6162 
  62   0.0000       0.529884        14.4189 
  63   0.0000       0.529884        14.4189 
  64   0.0000       0.529884        14.4189 
  65   0.0000       0.529884        14.4189 
  66   0.0000       0.529884        14.4189 
  67   0.0000       0.529884        14.4189 
  68   0.0000       0.529884        14.4189 
  69   0.0000       0.658063        17.9068 
  70   0.0000       0.658063        17.9068 
  71   0.0000       0.658063        17.9068 
  72   0.0000       0.874521        23.7969 
  73   0.0000       0.874521        23.7969 
  74   0.0000       0.874521        23.7969 
  75   0.0000       0.874521        23.7969 
  76   0.0000       0.874521        23.7969 
  77   0.0000       1.099625        29.9223 
  78   0.0000       1.223955        33.3055 
  79   0.0000       1.223955        33.3055 
  80   0.0000       1.223955        33.3055 
  81   0.0000       1.223955        33.3055 
  82   0.0000       1.223955        33.3055 
  83   0.0000       1.223955        33.3055 
  84   0.0000       1.223955        33.3055 
  85   0.0000       1.385383        37.6982 
  86   0.0000       1.385383        37.6982 
  87   0.0000       1.385383        37.6982 
  88   0.0000       1.385383        37.6982 
  89   0.0000       1.385383        37.6982 
  90   0.0000       1.385383        37.6982 
  91   0.0000       1.385383        37.6982 
  92   0.0000       1.385383        37.6982 
  93   0.0000       1.385383        37.6982 
  94   0.0000       2.378888        64.7328 
  95   0.0000       2.378888        64.7328 
  96   0.0000       2.378888        64.7328 
  97   0.0000       2.378888        64.7328 
  98   0.0000       2.378888        64.7328 
  99   0.0000       2.436040        66.2880 
 100   0.0000       2.436040        66.2880 
 101   0.0000       2.436040        66.2880 
 102   0.0000       2.745385        74.7057 
 103   0.0000       2.745385        74.7057 
 104   0.0000       2.745385        74.7057 
 105   0.0000       2.745385        74.7057 
 106   0.0000       2.745385        74.7057 
 107   0.0000       2.745385        74.7057 
 108   0.0000       2.745385        74.7057 
 109   0.0000       4.391817       119.5074 
 110   0.0000       4.787406       130.2719 
 111   0.0000       4.787406       130.2719 
 112   0.0000       4.787406       130.2719 
 113   0.0000       4.787406       130.2719 
 114   0.0000       4.787406       130.2719 
 115   0.0000       4.787406       130.2719 
 116   0.0000       4.787406       130.2719 
 117   0.0000       4.787406       130.2719 
 118   0.0000       4.787406       130.2719 
 119   0.0000       4.787406       130.2719 
 120   0.0000       4.787406       130.2719 
 121   0.0000       5.709227       155.3560 
 122   0.0000       5.709227       155.3560 
 123   0.0000       5.709227       155.3560 
 124   0.0000       5.709227       155.3560 
 125   0.0000       5.709227       155.3560 
 126   0.0000       5.709227       155.3560 
 127   0.0000       5.709227       155.3560 
 128   0.0000       5.709227       155.3560 
 129   0.0000       5.709227       155.3560 
 130   0.0000       6.662655       181.3000 
 131   0.0000       6.662655       181.3000 
 132   0.0000       6.662655       181.3000 
 133   0.0000       6.662655       181.3000 
 134   0.0000       6.662655       181.3000 
 135   0.0000       7.255211       197.4243 
 136   0.0000       7.255211       197.4243 
 137   0.0000       7.255211       197.4243 
 138   0.0000       7.255211       197.4243 
 139   0.0000       7.255211       197.4243 
 140   0.0000       7.255211       197.4243 
 141   0.0000       7.255211       197.4243 
 142   0.0000      12.186226       331.6041 
 143   0.0000      12.186226       331.6041 
 144   0.0000      12.186226       331.6041 
 145   0.0000      14.366929       390.9440 
 146   0.0000      14.366929       390.9440 
 147   0.0000      14.366929       390.9440 
 148   0.0000      14.366929       390.9440 
 149   0.0000      14.366929       390.9440 
 150   0.0000      14.366929       390.9440 
 151   0.0000      14.366929       390.9440 
 152   0.0000      14.366929       390.9440 
 153   0.0000      14.366929       390.9440 
 154   0.0000      14.366929       390.9440 
 155   0.0000      14.366929       390.9440 
 156   0.0000      14.399041       391.8178 
 157   0.0000      14.399041       391.8178 
 158   0.0000      14.399041       391.8178 
 159   0.0000      14.399041       391.8178 
 160   0.0000      14.399041       391.8178 
 161   0.0000      14.399041       391.8178 
 162   0.0000      14.399041       391.8178 
 163   0.0000      14.399041       391.8178 
 164   0.0000      14.399041       391.8178 
 165   0.0000      15.837492       430.9601 
 166   0.0000      15.837492       430.9601 
 167   0.0000      15.837492       430.9601 
 168   0.0000      15.837492       430.9601 
 169   0.0000      15.837492       430.9601 
 170   0.0000      15.837492       430.9601 
 171   0.0000      15.837492       430.9601 
 172   0.0000      21.847512       594.5010 
 173   0.0000      22.142432       602.5262 
 174   0.0000      22.142432       602.5262 
 175   0.0000      22.142432       602.5262 
 176   0.0000      22.142432       602.5262 
 177   0.0000      22.142432       602.5262 
 178   0.0000      54.171988      1474.0947 
 179   0.0000      54.171988      1474.0947 
 180   0.0000      54.171988      1474.0947 

                 SPIN DOWN ORBITALS
  NO   OCC          E(Eh)            E(eV) 
   0   1.0000   -1149.302993    -31274.1244 
   1   1.0000    -169.748678     -4619.0964 
   2   1.0000    -154.508217     -4204.3823 
   3   1.0000    -154.508217     -4204.3823 
   4   1.0000    -154.508217     -4204.3823 
   5   1.0000     -32.983759      -897.5337 
   6   1.0000     -27.768389      -755.6163 
   7   1.0000     -27.768389      -755.6163 
   8   1.0000     -27.768389      -755.6163 
   9   1.0000     -19.068878      -518.8906 
  10   1.0000     -19.068878      -518.8906 
  11   1.0000     -19.068878      -518.8906 
  12   1.0000     -19.068878      -518.8906 
  13   1.0000     -19.068878      -518.8906 
  14   1.0000      -5.404962      -147.0765 
  15   1.0000      -3.752185      -102.1021 
  16   1.0000      -3.752185      -102.1021 
  17   1.0000      -3.752185      -102.1021 
  18   1.0000      -1.224643       -33.3242 
  19   1.0000      -1.224643       -33.3242 
  20   1.0000      -1.224643       -33.3242 
  21   1.0000      -1.224643       -33.3242 
  22   1.0000      -1.224643       -33.3242 
  23   1.0000      -0.419262       -11.4087 
  24   0.0000      -0.131028        -3.5654 
  25   0.0000      -0.131028        -3.5654 
  26   0.0000      -0.131028        -3.5654 
  27   0.0000       0.005381         0.1464 
  28   0.0000       0.037095         1.0094 
  29   0.0000       0.037095         1.0094 
  30   0.0000       0.037095         1.0094 
  31   0.0000       0.069642         1.8950 
  32   0.0000       0.087938         2.3929 
  33   0.0000       0.087938         2.3929 
  34   0.0000       0.087938         2.3929 
  35   0.0000       0.087938         2.3929 
  36   0.0000       0.087938         2.3929 
  37   0.0000       0.182913         4.9773 
  38   0.0000       0.182913         4.9773 
  39   0.0000       0.182913         4.9773 
  40   0.0000       0.218305         5.9404 
  41   0.0000       0.218305         5.9404 
  42   0.0000       0.218305         5.9404 
  43   0.0000       0.218305         5.9404 
  44   0.0000       0.218305         5.9404 
  45   0.0000       0.218305         5.9404 
  46   0.0000       0.218305         5.9404 
  47   0.0000       0.295323         8.0362 
  48   0.0000       0.295323         8.0362 
  49   0.0000       0.295323         8.0362 
  50   0.0000       0.295323         8.0362 
  51   0.0000       0.295323         8.0362 
  52   0.0000       0.325154         8.8479 
  53   0.0000       0.357801         9.7363 
  54   0.0000       0.357801         9.7363 
  55   0.0000       0.357801         9.7363 
  56   0.0000       0.357801         9.7363 
  57   0.0000       0.357801         9.7363 
  58   0.0000       0.357801         9.7363 
  59   0.0000       0.357801         9.7363 
  60   0.0000       0.357801         9.7363 
  61   0.0000       0.357801         9.7363 
  62   0.0000       0.599883        16.3236 
  63   0.0000       0.599883        16.3236 
  64   0.0000       0.599883        16.3236 
  65   0.0000       0.599883        16.3236 
  66   0.0000       0.599883        16.3236 
  67   0.0000       0.599883        16.3236 
  68   0.0000       0.599883        16.3236 
  69   0.0000       0.709692        19.3117 
  70   0.0000       0.709692        19.3117 
  71   0.0000       0.709692        19.3117 
  72   0.0000       0.937440        25.5090 
  73   0.0000       0.937440        25.5090 
  74   0.0000       0.937440        25.5090 
  75   0.0000       0.937440        25.5090 
  76   0.0000       0.937440        25.5090 
  77   0.0000       1.157220        31.4896 
  78   0.0000       1.262428        34.3524 
  79   0.0000       1.262428        34.3524 
  80   0.0000       1.262428        34.3524 
  81   0.0000       1.262428        34.3524 
  82   0.0000       1.262428        34.3524 
  83   0.0000       1.262428        34.3524 
  84   0.0000       1.262428        34.3524 
  85   0.0000       1.468901        39.9708 
  86   0.0000       1.468901        39.9708 
  87   0.0000       1.468901        39.9708 
  88   0.0000       1.468901        39.9708 
  89   0.0000       1.468901        39.9708 
  90   0.0000       1.468901        39.9708 
  91   0.0000       1.468901        39.9708 
  92   0.0000       1.468901        39.9708 
  93   0.0000       1.468901        39.9708 
  94   0.0000       2.431754        66.1714 
  95   0.0000       2.431754        66.1714 
  96   0.0000       2.431754        66.1714 
  97   0.0000       2.431754        66.1714 
  98   0.0000       2.431754        66.1714 
  99   0.0000       2.481605        67.5279 
 100   0.0000       2.481605        67.5279 
 101   0.0000       2.481605        67.5279 
 102   0.0000       2.785845        75.8067 
 103   0.0000       2.785845        75.8067 
 104   0.0000       2.785845        75.8067 
 105   0.0000       2.785845        75.8067 
 106   0.0000       2.785845        75.8067 
 107   0.0000       2.785845        75.8067 
 108   0.0000       2.785845        75.8067 
 109   0.0000       4.424833       120.4058 
 110   0.0000       4.843254       131.7916 
 111   0.0000       4.843254       131.7916 
 112   0.0000       4.843254       131.7916 
 113   0.0000       4.843254       131.7916 
 114   0.0000       4.843254       131.7916 
 115   0.0000       4.843254       131.7916 
 116   0.0000       4.843254       131.7916 
 117   0.0000       4.843254       131.7916 
 118   0.0000       4.843254       131.7916 
 119   0.0000       4.843254       131.7916 
 120   0.0000       4.843254       131.7916 
 121   0.0000       5.720867       155.6727 
 122   0.0000       5.720867       155.6727 
 123   0.0000       5.720867       155.6727 
 124   0.0000       5.720867       155.6727 
 125   0.0000       5.720867       155.6727 
 126   0.0000       5.720867       155.6727 
 127   0.0000       5.720867       155.6727 
 128   0.0000       5.720867       155.6727 
 129   0.0000       5.720867       155.6727 
 130   0.0000       6.688177       181.9946 
 131   0.0000       6.688177       181.9946 
 132   0.0000       6.688177       181.9946 
 133   0.0000       6.688177       181.9946 
 134   0.0000       6.688177       181.9946 
 135   0.0000       7.276960       198.0162 
 136   0.0000       7.276960       198.0162 
 137   0.0000       7.276960       198.0162 
 138   0.0000       7.276960       198.0162 
 139   0.0000       7.276960       198.0162 
 140   0.0000       7.276960       198.0162 
 141   0.0000       7.276960       198.0162 
 142   0.0000      12.198327       331.9333 
 143   0.0000      12.198327       331.9333 
 144   0.0000      12.198327       331.9333 
 145   0.0000      14.372629       391.0991 
 146   0.0000      14.372629       391.0991 
 147   0.0000      14.372629       391.0991 
 148   0.0000      14.372629       391.0991 
 149   0.0000      14.372629       391.0991 
 150   0.0000      14.372629       391.0991 
 151   0.0000      14.372629       391.0991 
 152   0.0000      14.372629       391.0991 
 153   0.0000      14.372629       391.0991 
 154   0.0000      14.372629       391.0991 
 155   0.0000      14.372629       391.0991 
 156   0.0000      14.408846       392.0846 
 157   0.0000      14.408846       392.0846 
 158   0.0000      14.408846       392.0846 
 159   0.0000      14.408846       392.0846 
 160   0.0000      14.408846       392.0846 
 161   0.0000      14.408846       392.0846 
 162   0.0000      14.408846       392.0846 
 163   0.0000      14.408846       392.0846 
 164   0.0000      14.408846       392.0846 
 165   0.0000      15.847525       431.2331 
 166   0.0000      15.847525       431.2331 
 167   0.0000      15.847525       431.2331 
 168   0.0000      15.847525       431.2331 
 169   0.0000      15.847525       431.2331 
 170   0.0000      15.847525       431.2331 
 171   0.0000      15.847525       431.2331 
 172   0.0000      21.864689       594.9684 
 173   0.0000      22.148385       602.6882 
 174   0.0000      22.148385       602.6882 
 175   0.0000      22.148385       602.6882 
 176   0.0000      22.148385       602.6882 
 177   0.0000      22.148385       602.6882 
 178   0.0000      54.176272      1474.2113 
 179   0.0000      54.176272      1474.2113 
 180   0.0000      54.176272      1474.2113 

                    ********************************
                    * MULLIKEN POPULATION ANALYSIS *
                    ********************************

--------------------------------------------
MULLIKEN ATOMIC CHARGES AND SPIN POPULATIONS
--------------------------------------------
   0 Sb:   -0.000000    3.000000
Sum of atomic charges         :   -0.0000000
Sum of atomic spin populations:    3.0000000

-----------------------------------------------------
MULLIKEN REDUCED ORBITAL CHARGES AND SPIN POPULATIONS
-----------------------------------------------------
CHARGE
  0 Sbs       :    10.000000  s :    10.000000
      pz      :     7.000000  p :    21.000000
      px      :     7.000000
      py      :     7.000000
      dz2     :     4.000000  d :    20.000000
      dxz     :     4.000000
      dyz     :     4.000000
      dx2y2   :     4.000000
      dxy     :     4.000000
      f0      :     0.000000  f :     0.000000
      f+1     :     0.000000
      f-1     :     0.000000
      f+2     :     0.000000
      f-2     :     0.000000
      f+3     :     0.000000
      f-3     :     0.000000
      g0      :     0.000000  g :     0.000000
      g+1     :     0.000000
      g-1     :     0.000000
      g+2     :     0.000000
      g-2     :     0.000000
      g+3     :     0.000000
      g-3     :     0.000000
      g+4     :     0.000000
      g-4     :     0.000000
      h0      :     0.000000  h :     0.000000
      h+1     :     0.000000
      h-1     :     0.000000
      h+2     :     0.000000
      h-2     :     0.000000
      h+3     :     0.000000
      h-3     :     0.000000
      h+4     :     0.000000
      h-4     :     0.000000
      h+5     :     0.000000
      h-5     :     0.000000

SPIN
  0 Sbs       :    -0.000000  s :    -0.000000
      pz      :     1.000000  p :     3.000000
      px      :     1.000000
      py      :     1.000000
      dz2     :     0.000000  d :     0.000000
      dxz     :     0.000000
      dyz     :     0.000000
      dx2y2   :     0.000000
      dxy     :     0.000000
      f0      :     0.000000  f :     0.000000
      f+1     :     0.000000
      f-1     :     0.000000
      f+2     :     0.000000
      f-2     :     0.000000
      f+3     :     0.000000
      f-3     :     0.000000
      g0      :     0.000000  g :     0.000000
      g+1     :     0.000000
      g-1     :     0.000000
      g+2     :     0.000000
      g-2     :     0.000000
      g+3     :     0.000000
      g-3     :     0.000000
      g+4     :     0.000000
      g-4     :     0.000000
      h0      :     0.000000  h :     0.000000
      h+1     :     0.000000
      h-1     :     0.000000
      h+2     :     0.000000
      h-2     :     0.000000
      h+3     :     0.000000
      h-3     :     0.000000
      h+4     :     0.000000
      h-4     :     0.000000
      h+5     :     0.000000
      h-5     :     0.000000


                     *******************************
                     * LOEWDIN POPULATION ANALYSIS *
                     *******************************

-------------------------------------------
LOEWDIN ATOMIC CHARGES AND SPIN POPULATIONS
-------------------------------------------
   0 Sb:   -0.000000    3.000000

----------------------------------------------------
LOEWDIN REDUCED ORBITAL CHARGES AND SPIN POPULATIONS
----------------------------------------------------
CHARGE
  0 Sbs       :    10.000000  s :    10.000000
      pz      :     7.000000  p :    21.000000
      px      :     7.000000
      py      :     7.000000
      dz2     :     4.000000  d :    20.000000
      dxz     :     4.000000
      dyz     :     4.000000
      dx2y2   :     4.000000
      dxy     :     4.000000
      f0      :     0.000000  f :     0.000000
      f+1     :     0.000000
      f-1     :     0.000000
      f+2     :     0.000000
      f-2     :     0.000000
      f+3     :     0.000000
      f-3     :     0.000000
      g0      :     0.000000  g :     0.000000
      g+1     :     0.000000
      g-1     :     0.000000
      g+2     :     0.000000
      g-2     :     0.000000
      g+3     :     0.000000
      g-3     :     0.000000
      g+4     :     0.000000
      g-4     :     0.000000
      h0      :     0.000000  h :     0.000000
      h+1     :     0.000000
      h-1     :     0.000000
      h+2     :     0.000000
      h-2     :     0.000000
      h+3     :     0.000000
      h-3     :     0.000000
      h+4     :     0.000000
      h-4     :     0.000000
      h+5     :     0.000000
      h-5     :     0.000000

SPIN
  0 Sbs       :    -0.000000  s :    -0.000000
      pz      :     1.000000  p :     3.000000
      px      :     1.000000
      py      :     1.000000
      dz2     :     0.000000  d :     0.000000
      dxz     :     0.000000
      dyz     :     0.000000
      dx2y2   :     0.000000
      dxy     :     0.000000
      f0      :     0.000000  f :     0.000000
      f+1     :     0.000000
      f-1     :     0.000000
      f+2     :     0.000000
      f-2     :     0.000000
      f+3     :     0.000000
      f-3     :     0.000000
      g0      :     0.000000  g :     0.000000
      g+1     :     0.000000
      g-1     :     0.000000
      g+2     :     0.000000
      g-2     :     0.000000
      g+3     :     0.000000
      g-3     :     0.000000
      g+4     :     0.000000
      g-4     :     0.000000
      h0      :     0.000000  h :     0.000000
      h+1     :     0.000000
      h-1     :     0.000000
      h+2     :     0.000000
      h-2     :     0.000000
      h+3     :     0.000000
      h-3     :     0.000000
      h+4     :     0.000000
      h-4     :     0.000000
      h+5     :     0.000000
      h-5     :     0.000000


                      *****************************
                      * MAYER POPULATION ANALYSIS *
                      *****************************

  NA   - Mulliken gross atomic population
  ZA   - Total nuclear charge
  QA   - Mulliken gross atomic charge
  VA   - Mayer's total valence
  BVA  - Mayer's bonded valence
  FA   - Mayer's free valence

  ATOM       NA         ZA         QA         VA         BVA        FA
  0 Sb    51.0000    51.0000    -0.0000     3.0017     0.0000     3.0017

  Mayer bond orders larger than 0.100000


-------
TIMINGS
-------

Total SCF time: 0 days 0 hours 0 min 25 sec 

Total time                  ....      25.660 sec
Sum of individual times     ....      23.687 sec  ( 92.3%)

Fock matrix formation       ....      20.283 sec  ( 79.0%)
  XC integration            ....       4.032 sec  ( 19.9% of F)
    Basis function eval.    ....       0.064 sec  (  1.6% of XC)
    Density eval.           ....       0.149 sec  (  3.7% of XC)
    XC-Functional eval.     ....       0.029 sec  (  0.7% of XC)
    XC-Potential eval.      ....       0.161 sec  (  4.0% of XC)
Diagonalization             ....       0.205 sec  (  0.8%)
Density matrix formation    ....       0.011 sec  (  0.0%)
Population analysis         ....       0.283 sec  (  1.1%)
Initial guess               ....       1.067 sec  (  4.2%)
Orbital Transformation      ....       0.000 sec  (  0.0%)
Orbital Orthonormalization  ....       0.000 sec  (  0.0%)
DIIS solution               ....       0.123 sec  (  0.5%)
SOSCF solution              ....       0.190 sec  (  0.7%)
Grid generation             ....       1.526 sec  (  5.9%)

Maximum memory used throughout the entire SCF-calculation: 235.3 MB

-------------------------   --------------------
FINAL SINGLE POINT ENERGY     -6565.412837617996
-------------------------   --------------------


                            ***************************************
                            *     ORCA property calculations      *
                            ***************************************

                                    ---------------------
                                    Active property flags
                                    ---------------------
   (+) Dipole Moment


------------------------------------------------------------------------------
                       ORCA ELECTRIC PROPERTIES CALCULATION
------------------------------------------------------------------------------

Dipole Moment Calculation                       ... on
Quadrupole Moment Calculation                   ... off
Polarizability Calculation                      ... off
GBWName                                         ... Sb_sapporo-qzp-2012-diffuse_pbe.gbw
Electron density                                ... Sb_sapporo-qzp-2012-diffuse_pbe.scfp
The origin for moment calculation is the CENTER OF MASS  = ( 0.000000,  0.000000  0.000000)

-------------
DIPOLE MOMENT
-------------
                                X             Y             Z
Electronic contribution:     -0.00000      -0.00000      -0.00000
Nuclear contribution   :      0.00000       0.00000       0.00000
                        -----------------------------------------
Total Dipole Moment    :     -0.00000      -0.00000      -0.00000
                        -----------------------------------------
Magnitude (a.u.)       :      0.00000
Magnitude (Debye)      :      0.00000



--------------------
Rotational spectrum 
--------------------
 
Rotational constants in cm-1:     0.000000     0.000000     0.000000 
Rotational constants in MHz :     0.000000     0.000000     0.000000 

 Dipole components along the rotational axes: 
x,y,z [a.u.] :    -0.000000    -0.000000    -0.000000 
x,y,z [Debye]:    -0.000000    -0.000000    -0.000000 

 

Timings for individual modules:

Sum of individual times         ...       54.400 sec (=   0.907 min)
GTO integral calculation        ...       13.243 sec (=   0.221 min)  24.3 %
Relativistic integrals          ...       12.359 sec (=   0.206 min)  22.7 %
SCF iterations                  ...       28.798 sec (=   0.480 min)  52.9 %
                             ****ORCA TERMINATED NORMALLY****
TOTAL RUN TIME: 0 days 0 hours 0 minutes 59 seconds 143 msec
