
                                 *****************
                                 * O   R   C   A *
                                 *****************

                                            #,                                       
                                            ###                                      
                                            ####                                     
                                            #####                                    
                                            ######                                   
                                           ########,                                 
                                     ,,################,,,,,                         
                               ,,#################################,,                 
                          ,,##########################################,,             
                       ,#########################################, ''#####,          
                    ,#############################################,,   '####,        
                  ,##################################################,,,,####,       
                ,###########''''           ''''###############################       
              ,#####''   ,,,,##########,,,,          '''####'''          '####       
            ,##' ,,,,###########################,,,                        '##       
           ' ,,###''''                  '''############,,,                           
         ,,##''                                '''############,,,,        ,,,,,,###''
      ,#''                                            '''#######################'''  
     '                                                          ''''####''''         
             ,#######,   #######,   ,#######,      ##                                
            ,#'     '#,  ##    ##  ,#'     '#,    #''#        ######   ,####,        
            ##       ##  ##   ,#'  ##            #'  '#       #        #'  '#        
            ##       ##  #######   ##           ,######,      #####,   #    #        
            '#,     ,#'  ##    ##  '#,     ,#' ,#      #,         ##   #,  ,#        
             '#######'   ##     ##  '#######'  #'      '#     #####' # '####'        



                  #######################################################
                  #                        -***-                        #
                  #          Department of theory and spectroscopy      #
                  #    Directorship and core code : Frank Neese         #
                  #        Max Planck Institute fuer Kohlenforschung    #
                  #                Kaiser Wilhelm Platz 1               #
                  #                 D-45470 Muelheim/Ruhr               #
                  #                      Germany                        #
                  #                                                     #
                  #                  All rights reserved                #
                  #                        -***-                        #
                  #######################################################


                         Program Version 5.0.1 -  RELEASE  -


 With contributions from (in alphabetic order):
   Daniel Aravena         : Magnetic Suceptibility
   Michael Atanasov       : Ab Initio Ligand Field Theory (pilot matlab implementation)
   Alexander A. Auer      : GIAO ZORA, VPT2 properties, NMR spectrum
   Ute Becker             : Parallelization
   Giovanni Bistoni       : ED, misc. LED, open-shell LED, HFLD
   Martin Brehm           : Molecular dynamics
   Dmytro Bykov           : SCF Hessian
   Vijay G. Chilkuri      : MRCI spin determinant printing, contributions to CSF-ICE
   Dipayan Datta          : RHF DLPNO-CCSD density
   Achintya Kumar Dutta   : EOM-CC, STEOM-CC
   Dmitry Ganyushin       : Spin-Orbit,Spin-Spin,Magnetic field MRCI
   Miquel Garcia          : C-PCM and meta-GGA Hessian, CC/C-PCM, Gaussian charge scheme
   Yang Guo               : DLPNO-NEVPT2, F12-NEVPT2, CIM, IAO-localization
   Andreas Hansen         : Spin unrestricted coupled pair/coupled cluster methods
   Benjamin Helmich-Paris : MC-RPA, TRAH-SCF, COSX integrals
   Lee Huntington         : MR-EOM, pCC
   Robert Izsak           : Overlap fitted RIJCOSX, COSX-SCS-MP3, EOM
   Marcus Kettner         : VPT2
   Christian Kollmar      : KDIIS, OOCD, Brueckner-CCSD(T), CCSD density, CASPT2, CASPT2-K
   Simone Kossmann        : Meta GGA functionals, TD-DFT gradient, OOMP2, MP2 Hessian
   Martin Krupicka        : Initial AUTO-CI
   Lucas Lang             : DCDCAS
   Marvin Lechner         : AUTO-CI (C++ implementation), FIC-MRCC
   Dagmar Lenk            : GEPOL surface, SMD
   Dimitrios Liakos       : Extrapolation schemes; Compound Job, initial MDCI parallelization
   Dimitrios Manganas     : Further ROCIS development; embedding schemes
   Dimitrios Pantazis     : SARC Basis sets
   Anastasios Papadopoulos: AUTO-CI, single reference methods and gradients
   Taras Petrenko         : DFT Hessian,TD-DFT gradient, ASA, ECA, R-Raman, ABS, FL, XAS/XES, NRVS
   Peter Pinski           : DLPNO-MP2, DLPNO-MP2 Gradient
   Christoph Reimann      : Effective Core Potentials
   Marius Retegan         : Local ZFS, SOC
   Christoph Riplinger    : Optimizer, TS searches, QM/MM, DLPNO-CCSD(T), (RO)-DLPNO pert. Triples
   Tobias Risthaus        : Range-separated hybrids, TD-DFT gradient, RPA, STAB
   Michael Roemelt        : Original ROCIS implementation
   Masaaki Saitow         : Open-shell DLPNO-CCSD energy and density
   Barbara Sandhoefer     : DKH picture change effects
   Avijit Sen             : IP-ROCIS
   Kantharuban Sivalingam : CASSCF convergence, NEVPT2, FIC-MRCI
   Bernardo de Souza      : ESD, SOC TD-DFT
   Georgi Stoychev        : AutoAux, RI-MP2 NMR, DLPNO-MP2 response
   Willem Van den Heuvel  : Paramagnetic NMR
   Boris Wezisla          : Elementary symmetry handling
   Frank Wennmohs         : Technical directorship


 We gratefully acknowledge several colleagues who have allowed us to
 interface, adapt or use parts of their codes:
   Stefan Grimme, W. Hujo, H. Kruse, P. Pracht,  : VdW corrections, initial TS optimization,
                  C. Bannwarth, S. Ehlert          DFT functionals, gCP, sTDA/sTD-DF
   Ed Valeev, F. Pavosevic, A. Kumar             : LibInt (2-el integral package), F12 methods
   Garnet Chan, S. Sharma, J. Yang, R. Olivares  : DMRG
   Ulf Ekstrom                                   : XCFun DFT Library
   Mihaly Kallay                                 : mrcc  (arbitrary order and MRCC methods)
   Jiri Pittner, Ondrej Demel                    : Mk-CCSD
   Frank Weinhold                                : gennbo (NPA and NBO analysis)
   Christopher J. Cramer and Donald G. Truhlar   : smd solvation model
   Lars Goerigk                                  : TD-DFT with DH, B97 family of functionals
   V. Asgeirsson, H. Jonsson                     : NEB implementation
   FAccTs GmbH                                   : IRC, NEB, NEB-TS, DLPNO-Multilevel, CI-OPT
                                                   MM, QMMM, 2- and 3-layer-ONIOM, Crystal-QMMM,
                                                   LR-CPCM, SF, NACMEs, symmetry and pop. for TD-DFT,
                                                   nearIR, NL-DFT gradient (VV10), updates on ESD,
                                                   ML-optimized integration grids
   S Lehtola, MJT Oliveira, MAL Marques          : LibXC Library
   Liviu Ungur et al                             : ANISO software


 Your calculation uses the libint2 library for the computation of 2-el integrals
 For citations please refer to: http://libint.valeyev.net

 Your ORCA version has been built with support for libXC version: 5.1.0
 For citations please refer to: https://tddft.org/programs/libxc/

 This ORCA versions uses:
   CBLAS   interface :  Fast vector & matrix operations
   LAPACKE interface :  Fast linear algebra routines
   SCALAPACK package :  Parallel linear algebra routines
   Shared memory     :  Shared parallel matrices
   BLAS/LAPACK       :  OpenBLAS 0.3.15  USE64BITINT DYNAMIC_ARCH NO_AFFINITY Haswell SINGLE_THREADED
        Core in use  :  Haswell
   Copyright (c) 2011-2014, The OpenBLAS Project


SCAN-COORDS

Reading of a custom basis requested
Basis file         : Sn_ano-rcc-vqzp.basis
READING GTO-BASIS: TIN
Basis successfully read

================================================================================

----- Orbital basis set information -----
================================================================================
                                        WARNINGS
                       Please study these warnings very carefully!
================================================================================


INFO   : the flag for use of the SHARK integral package has been found!

================================================================================
                                       INPUT FILE
================================================================================
NAME = Sn_ano-rcc-vqzp_pbe.inp
|  1> !uks pbe nori verytightscf soscf notrah defgrid3
|  2> 
|  3> %pal
|  4>   nprocs 32
|  5> end
|  6> %coords
|  7>   charge 0
|  8>   mult 3
|  9>   units bohrs
| 10>   coords
| 11>     Sn 0.0 0.0 0.0
| 12>   end
| 13> end
| 14> %basis
| 15>   gtoname "Sn_ano-rcc-vqzp.basis"
| 16>   delECP Sn
| 17> end
| 18> %rel
| 19>   method zora
| 20>   modelpot 1, 0, 0, 0
| 21>   c 137.035999084
| 22> endd                         ****END OF INPUT****
================================================================================

                       ****************************
                       * Single Point Calculation *
                       ****************************

---------------------------------
CARTESIAN COORDINATES (ANGSTROEM)
---------------------------------
  Sn     0.000000    0.000000    0.000000

----------------------------
CARTESIAN COORDINATES (A.U.)
----------------------------
  NO LB      ZA    FRAG     MASS         X           Y           Z
   0 Sn   50.0000    0   118.690    0.000000    0.000000    0.000000

--------------------------------
INTERNAL COORDINATES (ANGSTROEM)
--------------------------------
 Sn     0   0   0     0.000000000000     0.00000000     0.00000000

---------------------------
INTERNAL COORDINATES (A.U.)
---------------------------
 Sn     0   0   0     0.000000000000     0.00000000     0.00000000

---------------------
BASIS SET INFORMATION
---------------------
There are 1 groups of distinct atoms

 Group   1 Type Sn  : 176s133p65d15f6g contracted to 8s7p5d3f2g pattern {2222222222222222/19191919191919/1313131313/555/33}

Atom   0Sn   basis set group =>   1


           ************************************************************
           *        Program running with 32 parallel MPI-processes    *
           *              working on a common directory               *
           ************************************************************
------------------------------------------------------------------------------
                           ORCA GTO INTEGRAL CALCULATION
------------------------------------------------------------------------------
------------------------------------------------------------------------------
                   ___                                                        
                  /   \      - P O W E R E D   B Y -                         
                 /     \                                                     
                 |  |  |   _    _      __       _____    __    __             
                 |  |  |  | |  | |    /  \     |  _  \  |  |  /  |          
                  \  \/   | |  | |   /    \    | | | |  |  | /  /          
                 / \  \   | |__| |  /  /\  \   | |_| |  |  |/  /          
                |  |  |   |  __  | /  /__\  \  |    /   |      \           
                |  |  |   | |  | | |   __   |  |    \   |  |\   \          
                \     /   | |  | | |  |  |  |  | |\  \  |  | \   \       
                 \___/    |_|  |_| |__|  |__|  |_| \__\ |__|  \__/        
                                                                              
                      - O R C A' S   B I G   F R I E N D -                    
                                      &                                       
                       - I N T E G R A L  F E E D E R -                       
                                                                              
 v1 FN, 2020, v2 2021                                                         
------------------------------------------------------------------------------


Reading SHARK input file Sn_ano-rcc-vqzp_pbe.SHARKINP.tmp ... ok
----------------------
SHARK INTEGRAL PACKAGE
----------------------

Number of atoms                             ...      1
Number of basis functions                   ...     93
Number of shells                            ...     25
Maximum angular momentum                    ...      4
Integral batch strategy                     ... SHARK/LIBINT Hybrid
RI-J (if used) integral strategy            ... SPLIT-RIJ (Revised 2003 algorithm where possible)
Printlevel                                  ...      1
Contraction scheme used                     ... SEGMENTED contraction
Coulomb Range Separation                    ... NOT USED
Exchange Range Separation                   ... NOT USED
Finite Nucleus Model                        ... NOT USED
Auxiliary Coulomb fitting basis             ... NOT available
Auxiliary J/K fitting basis                 ... NOT available
Auxiliary Correlation fitting basis         ... NOT available
Auxiliary 'external' fitting basis          ... NOT available
Integral threshold                          ...     1.000000e-12
Primitive cut-off                           ...     1.000000e-14
Primitive pair pre-selection threshold      ...     1.000000e-14

Calculating pre-screening integrals         ... done ( 22.8 sec) Dimension = 25
Organizing shell pair data                  ... done (  0.4 sec)
Shell pair information
Total number of shell pairs                 ...       325
Shell pairs after pre-screening             ...       325
Total number of primitive shell pairs       ...     81681
Primitive shell pairs kept                  ...     81681
          la=0 lb=0:     36 shell pairs
          la=1 lb=0:     56 shell pairs
          la=1 lb=1:     28 shell pairs
          la=2 lb=0:     40 shell pairs
          la=2 lb=1:     35 shell pairs
          la=2 lb=2:     15 shell pairs
          la=3 lb=0:     24 shell pairs
          la=3 lb=1:     21 shell pairs
          la=3 lb=2:     15 shell pairs
          la=3 lb=3:      6 shell pairs
          la=4 lb=0:     16 shell pairs
          la=4 lb=1:     14 shell pairs
          la=4 lb=2:     10 shell pairs
          la=4 lb=3:      6 shell pairs
          la=4 lb=4:      3 shell pairs

Calculating one electron integrals          ... done (  0.1 sec)
Calculating Nuclear repulsion               ... done (  0.0 sec) ENN=      0.000000000000 Eh

SHARK setup successfully completed in  23.5 seconds

Maximum memory used throughout the entire GTOINT-calculation: 313.8 MB


           ************************************************************
           *        Program running with 32 parallel MPI-processes    *
           *              working on a common directory               *
           ************************************************************
------------------------------------------------------------------------------
                          ORCA RELATIVISTIC HAMILTONIAN
------------------------------------------------------------------------------

Relativistic Method            ... ZORA(MP)
Treatment of potential         ... Van Wuellen
Nucleus model                  ... Point Nucleus
Speed of light used            ... 137.03599908400000


            *************************************************
            *         ZERO ORDER REGULAR APPROXIMATION      *
            *                     ZORA(MP)                  *
            *            Programmed by FN according to      *
            *                   C. van Wuellen              *
            *       J. Chem. Phys. (1998) vol 109, 392-399  *
            *************************************************

Terms included in model potential: +V(e,N)
Basis function cutoff value   ... 1.000000e-12
Loading the fitted atomic densities  (DKH4)  ... done
Calculating the cutoffs                      ... done
Number of fit functions                      ... 29
Setting up the integration grid ... done

Maximum memory used throughout the entire REL-calculation: 12.1 MB


           ************************************************************
           *        Program running with 32 parallel MPI-processes    *
           *              working on a common directory               *
           ************************************************************
-------------------------------------------------------------------------------
                                 ORCA SCF
-------------------------------------------------------------------------------

------------
SCF SETTINGS
------------
Hamiltonian:
 Density Functional     Method          .... DFT(GTOs)
 Exchange Functional    Exchange        .... PBE
   PBE kappa parameter   XKappa         ....  0.804000
   PBE mue parameter    XMuePBE         ....  0.219520
 Correlation Functional Correlation     .... PBE
   PBE beta parameter  CBetaPBE         ....  0.066725
 LDA part of GGA corr.  LDAOpt          .... PW91-LDA
 Gradients option       PostSCFGGA      .... off
   Density functional embedding theory  .... OFF
   NL short-range parameter             ....  6.400000

Relativistic Settings:
 Scalar relativistic method             .... ZORA
 Speed of light used       Velit        ....       137.035999
Orbital energies will be scaled


General Settings:
 Integral files         IntName         .... Sn_ano-rcc-vqzp_pbe
 Hartree-Fock type      HFTyp           .... UHF
 Total Charge           Charge          ....    0
 Multiplicity           Mult            ....    3
 Number of Electrons    NEL             ....   50
 Basis Dimension        Dim             ....   93
 Nuclear Repulsion      ENuc            ....      0.0000000000 Eh

Convergence Acceleration:
 DIIS                   CNVDIIS         .... on
   Start iteration      DIISMaxIt       ....    12
   Startup error        DIISStart       ....  0.200000
   # of expansion vecs  DIISMaxEq       ....     5
   Bias factor          DIISBfac        ....   1.050
   Max. coefficient     DIISMaxC        ....  10.000
 Trust-Rad. Augm. Hess. CNVTRAH         .... off
 SOSCF                  CNVSOSCF        .... on
   Start iteration      SOSCFMaxIt      ....   150
   Startup grad/error   SOSCFStart      ....  0.003300
 Level Shifting         CNVShift        .... on
   Level shift para.    LevelShift      ....    0.2500
   Turn off err/grad.   ShiftErr        ....    0.0010
 Zerner damping         CNVZerner       .... off
 Static damping         CNVDamp         .... on
   Fraction old density DampFac         ....    0.7000
   Max. Damping (<1)    DampMax         ....    0.9800
   Min. Damping (>=0)   DampMin         ....    0.0000
   Turn off err/grad.   DampErr         ....    0.1000
 Fernandez-Rico         CNVRico         .... off

SCF Procedure:
 Maximum # iterations   MaxIter         ....   125
 SCF integral mode      SCFMode         .... Direct
   Integral package                     .... SHARK and LIBINT hybrid scheme
 Reset frequency        DirectResetFreq ....    20
 Integral Threshold     Thresh          ....  1.000e-12 Eh
 Primitive CutOff       TCut            ....  1.000e-14 Eh

Convergence Tolerance:
 Convergence Check Mode ConvCheckMode   .... Total+1el-Energy
 Convergence forced     ConvForced      .... 0
 Energy Change          TolE            ....  1.000e-09 Eh
 1-El. energy change                    ....  1.000e-06 Eh
 Orbital Gradient       TolG            ....  2.000e-06
 Orbital Rotation angle TolX            ....  2.000e-06
 DIIS Error             TolErr          ....  1.000e-08


Diagonalization of the overlap matrix:
Smallest eigenvalue                        ... 1.000e+00
Time for diagonalization                   ...    0.003 sec
Threshold for overlap eigenvalues          ... 1.000e-08
Number of eigenvalues below threshold      ... 0
Time for construction of square roots      ...    0.041 sec
Total time needed                          ...    0.045 sec

Time for model grid setup =    0.071 sec

------------------------------
INITIAL GUESS: MODEL POTENTIAL
------------------------------
Loading ZORA relativistic densities                ... done
Calculating cut-offs                               ... done
Initializing the effective Hamiltonian             ... done
Setting up the integral package (SHARK)            ... done
Starting the Coulomb interaction                   ... done (   0.2 sec)
Reading the grid                                   ... done
Mapping shells                                     ... done
Starting the XC term evaluation                    ... done (   0.0 sec)
  promolecular density results
     # of electrons  =     50.000300465
     EX              =   -169.581123317
     EC              =     -2.638666589
     EX+EC           =   -172.219789906
Transforming the Hamiltonian                       ... done (   0.0 sec)
Diagonalizing the Hamiltonian                      ... done (   0.0 sec)
Back transforming the eigenvectors                 ... done (   0.0 sec)
Now organizing SCF variables                       ... done
                      ------------------
                      INITIAL GUESS DONE (   0.4 sec)
                      ------------------
-------------------
DFT GRID GENERATION
-------------------

General Integration Accuracy     IntAcc      ... 4.959
Radial Grid Type                 RadialGrid  ... OptM3 with GC (2021)
Angular Grid (max. ang.)         AngularGrid ... 6 (Lebedev-590)
Angular grid pruning method      GridPruning ... 4 (adaptive)
Weight generation scheme         WeightScheme... Becke
Basis function cutoff            BFCut       ... 1.0000e-12
Integration weight cutoff        WCut        ... 1.0000e-14
Angular grids for H and He will be reduced by one unit
Partially contracted basis set               ... off
Rotationally invariant grid construction     ... off

Total number of grid points                  ...    32866
Total number of batches                      ...      514
Average number of points per batch           ...       63
Average number of grid points per atom       ...    32866
Time for grid setup =    0.994 sec

--------------
SCF ITERATIONS
--------------
ITER       Energy         Delta-E        Max-DP      RMS-DP      [F,P]     Damp
               ***  Starting incremental Fock matrix formation  ***
  0  -6273.0475065331   0.000000000000 0.00921227  0.00024868  0.3053156 0.7000
  1  -6273.0584721007  -0.010965567602 0.00851719  0.00015755  0.2134430 0.7000
                               ***Turning on DIIS***
  2  -6273.0638407862  -0.005368685557 0.00600760  0.00009695  0.1492311 0.7000
  3  -6273.0672779344  -0.003437148220 0.00333342  0.00006444  0.1043494 0.7000
  4  -6273.0696180157  -0.002340081298 0.00824259  0.00014991  0.0730199 0.0000
                      *** Initiating the SOSCF procedure ***
                           *** Shutting down DIIS ***
                      *** Re-Reading the Fockian *** 
                      *** Removing any level shift *** 
ITER      Energy       Delta-E        Grad      Rot      Max-DP    RMS-DP
  5  -6273.07510598  -0.0054879652  0.000327  0.000327  0.000900  0.000013
               *** Restarting incremental Fock matrix formation ***
  6  -6273.07510689  -0.0000009076  0.000220  0.000403  0.000444  0.000007
  7  -6273.07510678   0.0000001085  0.000277  0.000177  0.000193  0.000003
  8  -6273.07510723  -0.0000004529  0.000015  0.000031  0.000032  0.000000
  9  -6273.07510723  -0.0000000009  0.000006  0.000010  0.000010  0.000000
                  ***Gradient check signals convergence***
              ***Rediagonalizing the Fockian in SOSCF/NRSCF***

               *****************************************************
               *                     SUCCESS                       *
               *           SCF CONVERGED AFTER  10 CYCLES          *
               *****************************************************


----------------
TOTAL SCF ENERGY
----------------

Total Energy       :        -6273.07510723 Eh         -170699.05184 eV

Components:
Nuclear Repulsion  :            0.00000000 Eh               0.00000 eV
Electronic Energy  :        -6273.07510723 Eh         -170699.05184 eV
One Electron Energy:        -8592.77261369 Eh         -233821.23006 eV
Two Electron Energy:         2319.69750646 Eh           63122.17822 eV

Virial components:
Potential Energy   :       -12983.22269010 Eh         -353291.45039 eV
Kinetic Energy     :         6710.14758287 Eh          182592.39855 eV
Virial Ratio       :            1.93486395


DFT components:
N(Alpha)           :       25.999999983367 electrons
N(Beta)            :       23.999999983735 electrons
N(Total)           :       49.999999967101 electrons
E(X)               :     -163.926564451150 Eh       
E(C)               :       -2.637646526537 Eh       
E(XC)              :     -166.564210977687 Eh       
DFET-embed. en.    :        0.000000000000 Eh       

---------------
SCF CONVERGENCE
---------------

  Last Energy change         ...   -1.8008e-10  Tolerance :   1.0000e-09
  Last MAX-Density change    ...    1.9117e-07  Tolerance :   1.0000e-08
  Last RMS-Density change    ...    4.0343e-09  Tolerance :   1.0000e-09
  Last Orbital Gradient      ...    1.2602e-07  Tolerance :   2.0000e-06
  Last Orbital Rotation      ...    2.5836e-07  Tolerance :   2.0000e-06

             **** THE GBW FILE WAS UPDATED (Sn_ano-rcc-vqzp_pbe.gbw) ****
             **** DENSITY Sn_ano-rcc-vqzp_pbe.scfp WAS UPDATED ****
             **** ENERGY FILE WAS UPDATED (Sn_ano-rcc-vqzp_pbe.en.tmp) ****
----------------------
UHF SPIN CONTAMINATION
----------------------

Warning: in a DFT calculation there is little theoretical justification to 
         calculate <S**2> as in Hartree-Fock theory. We will do it anyways
         but you should keep in mind that the values have only limited relevance

Expectation value of <S**2>     :     2.001940
Ideal value S*(S+1) for S=1.0   :     2.000000
Deviation                       :     0.001940

             **** THE GBW FILE WAS UPDATED (Sn_ano-rcc-vqzp_pbe.gbw) ****
             **** DENSITY Sn_ano-rcc-vqzp_pbe.scfp WAS UPDATED ****
----------------
ORBITAL ENERGIES
----------------
                 SPIN UP ORBITALS
  NO   OCC          E(Eh)            E(eV) 
   0   1.0000   -1100.943192    -29958.1873 
   1   1.0000    -162.176363     -4413.0432 
   2   1.0000    -146.387655     -3983.4106 
   3   1.0000    -146.386189     -3983.3707 
   4   1.0000    -146.386189     -3983.3707 
   5   1.0000     -31.140456      -847.3749 
   6   1.0000     -25.890034      -704.5037 
   7   1.0000     -25.886161      -704.3983 
   8   1.0000     -25.886161      -704.3983 
   9   1.0000     -17.514847      -476.6032 
  10   1.0000     -17.513977      -476.5796 
  11   1.0000     -17.513977      -476.5796 
  12   1.0000     -17.511354      -476.5082 
  13   1.0000     -17.511354      -476.5082 
  14   1.0000      -4.913997      -133.7167 
  15   1.0000      -3.318202       -90.2929 
  16   1.0000      -3.308453       -90.0276 
  17   1.0000      -3.308453       -90.0276 
  18   1.0000      -0.953478       -25.9454 
  19   1.0000      -0.951057       -25.8796 
  20   1.0000      -0.951057       -25.8796 
  21   1.0000      -0.942687       -25.6518 
  22   1.0000      -0.942687       -25.6518 
  23   1.0000      -0.401006       -10.9119 
  24   1.0000      -0.152889        -4.1603 
  25   1.0000      -0.152889        -4.1603 
  26   0.0000      -0.149356        -4.0642 
  27   0.0000       0.030512         0.8303 
  28   0.0000       0.044359         1.2071 
  29   0.0000       0.044359         1.2071 
  30   0.0000       0.045992         1.2515 
  31   0.0000       0.101303         2.7566 
  32   0.0000       0.101303         2.7566 
  33   0.0000       0.103046         2.8040 
  34   0.0000       0.103046         2.8040 
  35   0.0000       0.108990         2.9658 
  36   0.0000       0.491336        13.3699 
  37   0.0000       0.491336        13.3699 
  38   0.0000       0.491871        13.3845 
  39   0.0000       0.491871        13.3845 
  40   0.0000       0.495008        13.4698 
  41   0.0000       0.495008        13.4698 
  42   0.0000       0.497473        13.5369 
  43   0.0000       0.525460        14.2985 
  44   0.0000       0.527893        14.3647 
  45   0.0000       0.527893        14.3647 
  46   0.0000       0.671512        18.2728 
  47   0.0000       0.790615        21.5137 
  48   0.0000       0.790615        21.5137 
  49   0.0000       0.793382        21.5890 
  50   0.0000       0.793458        21.5911 
  51   0.0000       0.793458        21.5911 
  52   0.0000       1.592523        43.3348 
  53   0.0000       1.592523        43.3348 
  54   0.0000       1.593582        43.3636 
  55   0.0000       1.593582        43.3636 
  56   0.0000       1.594740        43.3951 
  57   0.0000       1.594740        43.3951 
  58   0.0000       1.595942        43.4278 
  59   0.0000       1.595942        43.4278 
  60   0.0000       1.596999        43.4566 
  61   0.0000       1.644644        44.7530 
  62   0.0000       1.645536        44.7773 
  63   0.0000       1.645536        44.7773 
  64   0.0000       1.649189        44.8767 
  65   0.0000       1.649189        44.8767 
  66   0.0000       1.656640        45.0795 
  67   0.0000       1.656640        45.0795 
  68   0.0000       2.747433        74.7615 
  69   0.0000       2.754052        74.9416 
  70   0.0000       2.754052        74.9416 
  71   0.0000       4.159963       113.1983 
  72   0.0000       4.160466       113.2120 
  73   0.0000       4.160466       113.2120 
  74   0.0000       4.166314       113.3712 
  75   0.0000       4.166314       113.3712 
  76   0.0000       4.276613       116.3726 
  77   0.0000       4.425404       120.4214 
  78   0.0000       4.425900       120.4349 
  79   0.0000       4.425900       120.4349 
  80   0.0000       4.428035       120.4930 
  81   0.0000       4.428035       120.4930 
  82   0.0000       4.432569       120.6163 
  83   0.0000       4.432569       120.6163 
  84   0.0000       5.314075       144.6033 
  85   0.0000       5.314877       144.6251 
  86   0.0000       5.314877       144.6251 
  87   0.0000       5.317431       144.6947 
  88   0.0000       5.317431       144.6947 
  89   0.0000       5.322188       144.8241 
  90   0.0000       5.322188       144.8241 
  91   0.0000       5.329495       145.0229 
  92   0.0000       5.329495       145.0229 

                 SPIN DOWN ORBITALS
  NO   OCC          E(Eh)            E(eV) 
   0   1.0000   -1100.942135    -29958.1585 
   1   1.0000    -162.176055     -4413.0348 
   2   1.0000    -146.387358     -3983.4025 
   3   1.0000    -146.385175     -3983.3431 
   4   1.0000    -146.385175     -3983.3431 
   5   1.0000     -31.139545      -847.3501 
   6   1.0000     -25.889647      -704.4931 
   7   1.0000     -25.884803      -704.3613 
   8   1.0000     -25.884803      -704.3613 
   9   1.0000     -17.514359      -476.5899 
  10   1.0000     -17.513266      -476.5602 
  11   1.0000     -17.513266      -476.5602 
  12   1.0000     -17.509959      -476.4702 
  13   1.0000     -17.509959      -476.4702 
  14   1.0000      -4.911928      -133.6603 
  15   1.0000      -3.317581       -90.2760 
  16   1.0000      -3.305370       -89.9437 
  17   1.0000      -3.305370       -89.9437 
  18   1.0000      -0.950287       -25.8586 
  19   1.0000      -0.946135       -25.7456 
  20   1.0000      -0.946135       -25.7456 
  21   1.0000      -0.934337       -25.4246 
  22   1.0000      -0.934337       -25.4246 
  23   1.0000      -0.360002        -9.7962 
  24   0.0000      -0.125363        -3.4113 
  25   0.0000      -0.097383        -2.6499 
  26   0.0000      -0.097383        -2.6499 
  27   0.0000       0.063402         1.7253 
  28   0.0000       0.067642         1.8406 
  29   0.0000       0.080261         2.1840 
  30   0.0000       0.080261         2.1840 
  31   0.0000       0.137146         3.7319 
  32   0.0000       0.140622         3.8265 
  33   0.0000       0.140622         3.8265 
  34   0.0000       0.156033         4.2459 
  35   0.0000       0.156033         4.2459 
  36   0.0000       0.529260        14.4019 
  37   0.0000       0.532332        14.4855 
  38   0.0000       0.532332        14.4855 
  39   0.0000       0.540056        14.6957 
  40   0.0000       0.541674        14.7397 
  41   0.0000       0.541674        14.7397 
  42   0.0000       0.558382        15.1944 
  43   0.0000       0.558382        15.1944 
  44   0.0000       0.559214        15.2170 
  45   0.0000       0.559214        15.2170 
  46   0.0000       0.706912        19.2361 
  47   0.0000       0.816657        22.2224 
  48   0.0000       0.822668        22.3859 
  49   0.0000       0.822668        22.3859 
  50   0.0000       0.842086        22.9143 
  51   0.0000       0.842086        22.9143 
  52   0.0000       1.629758        44.3480 
  53   0.0000       1.631822        44.4041 
  54   0.0000       1.631822        44.4041 
  55   0.0000       1.638295        44.5803 
  56   0.0000       1.638295        44.5803 
  57   0.0000       1.649476        44.8845 
  58   0.0000       1.649476        44.8845 
  59   0.0000       1.652775        44.9743 
  60   0.0000       1.655084        45.0371 
  61   0.0000       1.655084        45.0371 
  62   0.0000       1.662124        45.2287 
  63   0.0000       1.662124        45.2287 
  64   0.0000       1.665522        45.3212 
  65   0.0000       1.665522        45.3212 
  66   0.0000       1.673941        45.5502 
  67   0.0000       1.673941        45.5502 
  68   0.0000       2.756897        75.0190 
  69   0.0000       2.775461        75.5241 
  70   0.0000       2.775461        75.5241 
  71   0.0000       4.169079       113.4464 
  72   0.0000       4.173208       113.5588 
  73   0.0000       4.173208       113.5588 
  74   0.0000       4.185447       113.8918 
  75   0.0000       4.185447       113.8918 
  76   0.0000       4.292650       116.8090 
  77   0.0000       4.433170       120.6327 
  78   0.0000       4.435030       120.6833 
  79   0.0000       4.435030       120.6833 
  80   0.0000       4.440657       120.8364 
  81   0.0000       4.440657       120.8364 
  82   0.0000       4.450081       121.0928 
  83   0.0000       4.450081       121.0928 
  84   0.0000       5.319773       144.7584 
  85   0.0000       5.321154       144.7959 
  86   0.0000       5.321154       144.7959 
  87   0.0000       5.325337       144.9098 
  88   0.0000       5.325337       144.9098 
  89   0.0000       5.332355       145.1007 
  90   0.0000       5.332355       145.1007 
  91   0.0000       5.342201       145.3687 
  92   0.0000       5.342201       145.3687 

                    ********************************
                    * MULLIKEN POPULATION ANALYSIS *
                    ********************************

--------------------------------------------
MULLIKEN ATOMIC CHARGES AND SPIN POPULATIONS
--------------------------------------------
   0 Sn:   -0.000000    2.000000
Sum of atomic charges         :   -0.0000000
Sum of atomic spin populations:    2.0000000

-----------------------------------------------------
MULLIKEN REDUCED ORBITAL CHARGES AND SPIN POPULATIONS
-----------------------------------------------------
CHARGE
  0 Sns       :     9.999016  s :     9.999016
      pz      :     6.796159  p :    19.999982
      px      :     6.999990
      py      :     6.203833
      dz2     :     4.000028  d :    20.000931
      dxz     :     3.999993
      dyz     :     4.000466
      dx2y2   :     4.000456
      dxy     :     3.999989
      f0      :     0.000001  f :     0.000018
      f+1     :     0.000000
      f-1     :     0.000005
      f+2     :     0.000003
      f-2     :     0.000003
      f+3     :     0.000004
      f-3     :     0.000002
      g0      :     0.000004  g :     0.000053
      g+1     :     0.000000
      g-1     :     0.000009
      g+2     :     0.000007
      g-2     :     0.000004
      g+3     :     0.000007
      g-3     :     0.000008
      g+4     :     0.000007
      g-4     :     0.000007

SPIN
  0 Sns       :     0.000921  s :     0.000921
      pz      :     0.796164  p :     1.999998
      px      :     0.999995
      py      :     0.203839
      dz2     :    -0.000028  d :    -0.000888
      dxz     :     0.000005
      dyz     :    -0.000441
      dx2y2   :    -0.000431
      dxy     :     0.000007
      f0      :    -0.000000  f :     0.000002
      f+1     :     0.000000
      f-1     :     0.000002
      f+2     :    -0.000001
      f-2     :     0.000001
      f+3     :     0.000001
      f-3     :    -0.000000
      g0      :    -0.000003  g :    -0.000033
      g+1     :    -0.000000
      g-1     :    -0.000005
      g+2     :    -0.000005
      g-2     :    -0.000003
      g+3     :    -0.000005
      g-3     :    -0.000004
      g+4     :    -0.000004
      g-4     :    -0.000005


                     *******************************
                     * LOEWDIN POPULATION ANALYSIS *
                     *******************************

-------------------------------------------
LOEWDIN ATOMIC CHARGES AND SPIN POPULATIONS
-------------------------------------------
   0 Sn:   -0.000000    2.000000

----------------------------------------------------
LOEWDIN REDUCED ORBITAL CHARGES AND SPIN POPULATIONS
----------------------------------------------------
CHARGE
  0 Sns       :     9.999016  s :     9.999016
      pz      :     6.796159  p :    19.999982
      px      :     6.999990
      py      :     6.203833
      dz2     :     4.000028  d :    20.000931
      dxz     :     3.999993
      dyz     :     4.000466
      dx2y2   :     4.000456
      dxy     :     3.999989
      f0      :     0.000001  f :     0.000018
      f+1     :     0.000000
      f-1     :     0.000005
      f+2     :     0.000003
      f-2     :     0.000003
      f+3     :     0.000004
      f-3     :     0.000002
      g0      :     0.000004  g :     0.000053
      g+1     :     0.000000
      g-1     :     0.000009
      g+2     :     0.000007
      g-2     :     0.000004
      g+3     :     0.000007
      g-3     :     0.000008
      g+4     :     0.000007
      g-4     :     0.000007

SPIN
  0 Sns       :     0.000921  s :     0.000921
      pz      :     0.796164  p :     1.999998
      px      :     0.999995
      py      :     0.203839
      dz2     :    -0.000028  d :    -0.000888
      dxz     :     0.000005
      dyz     :    -0.000441
      dx2y2   :    -0.000431
      dxy     :     0.000007
      f0      :    -0.000000  f :     0.000002
      f+1     :     0.000000
      f-1     :     0.000002
      f+2     :    -0.000001
      f-2     :     0.000001
      f+3     :     0.000001
      f-3     :    -0.000000
      g0      :    -0.000003  g :    -0.000033
      g+1     :    -0.000000
      g-1     :    -0.000005
      g+2     :    -0.000005
      g-2     :    -0.000003
      g+3     :    -0.000005
      g-3     :    -0.000004
      g+4     :    -0.000004
      g-4     :    -0.000005


                      *****************************
                      * MAYER POPULATION ANALYSIS *
                      *****************************

  NA   - Mulliken gross atomic population
  ZA   - Total nuclear charge
  QA   - Mulliken gross atomic charge
  VA   - Mayer's total valence
  BVA  - Mayer's bonded valence
  FA   - Mayer's free valence

  ATOM       NA         ZA         QA         VA         BVA        FA
  0 Sn    50.0000    50.0000    -0.0000     2.0039     0.0000     2.0039

  Mayer bond orders larger than 0.100000


-------
TIMINGS
-------

Total SCF time: 0 days 0 hours 16 min 56 sec 

Total time                  ....    1016.839 sec
Sum of individual times     ....    1016.081 sec  ( 99.9%)

Fock matrix formation       ....    1014.368 sec  ( 99.8%)
  XC integration            ....       1.771 sec  (  0.2% of F)
    Basis function eval.    ....       0.109 sec  (  6.2% of XC)
    Density eval.           ....       0.071 sec  (  4.0% of XC)
    XC-Functional eval.     ....       0.028 sec  (  1.6% of XC)
    XC-Potential eval.      ....       0.066 sec  (  3.8% of XC)
Diagonalization             ....       0.126 sec  (  0.0%)
Density matrix formation    ....       0.005 sec  (  0.0%)
Population analysis         ....       0.089 sec  (  0.0%)
Initial guess               ....       0.286 sec  (  0.0%)
Orbital Transformation      ....       0.000 sec  (  0.0%)
Orbital Orthonormalization  ....       0.000 sec  (  0.0%)
DIIS solution               ....       0.083 sec  (  0.0%)
SOSCF solution              ....       0.059 sec  (  0.0%)
Grid generation             ....       1.065 sec  (  0.1%)

Maximum memory used throughout the entire SCF-calculation: 255.5 MB

-------------------------   --------------------
FINAL SINGLE POINT ENERGY     -6273.075107233930
-------------------------   --------------------


                            ***************************************
                            *     ORCA property calculations      *
                            ***************************************

                                    ---------------------
                                    Active property flags
                                    ---------------------
   (+) Dipole Moment


------------------------------------------------------------------------------
                       ORCA ELECTRIC PROPERTIES CALCULATION
------------------------------------------------------------------------------

Dipole Moment Calculation                       ... on
Quadrupole Moment Calculation                   ... off
Polarizability Calculation                      ... off
GBWName                                         ... Sn_ano-rcc-vqzp_pbe.gbw
Electron density                                ... Sn_ano-rcc-vqzp_pbe.scfp
The origin for moment calculation is the CENTER OF MASS  = ( 0.000000,  0.000000  0.000000)

-------------
DIPOLE MOMENT
-------------
                                X             Y             Z
Electronic contribution:     -0.00000       0.00000      -0.00000
Nuclear contribution   :      0.00000       0.00000       0.00000
                        -----------------------------------------
Total Dipole Moment    :     -0.00000       0.00000      -0.00000
                        -----------------------------------------
Magnitude (a.u.)       :      0.00000
Magnitude (Debye)      :      0.00000



--------------------
Rotational spectrum 
--------------------
 
Rotational constants in cm-1:     0.000000     0.000000     0.000000 
Rotational constants in MHz :     0.000000     0.000000     0.000000 

 Dipole components along the rotational axes: 
x,y,z [a.u.] :    -0.000000     0.000000    -0.000000 
x,y,z [Debye]:    -0.000000     0.000000    -0.000000 

 

Timings for individual modules:

Sum of individual times         ...     1051.201 sec (=  17.520 min)
GTO integral calculation        ...       27.661 sec (=   0.461 min)   2.6 %
Relativistic integrals          ...        3.814 sec (=   0.064 min)   0.4 %
SCF iterations                  ...     1019.726 sec (=  16.995 min)  97.0 %
                             ****ORCA TERMINATED NORMALLY****
TOTAL RUN TIME: 0 days 0 hours 17 minutes 37 seconds 61 msec
