
                                 *****************
                                 * O   R   C   A *
                                 *****************

                                            #,                                       
                                            ###                                      
                                            ####                                     
                                            #####                                    
                                            ######                                   
                                           ########,                                 
                                     ,,################,,,,,                         
                               ,,#################################,,                 
                          ,,##########################################,,             
                       ,#########################################, ''#####,          
                    ,#############################################,,   '####,        
                  ,##################################################,,,,####,       
                ,###########''''           ''''###############################       
              ,#####''   ,,,,##########,,,,          '''####'''          '####       
            ,##' ,,,,###########################,,,                        '##       
           ' ,,###''''                  '''############,,,                           
         ,,##''                                '''############,,,,        ,,,,,,###''
      ,#''                                            '''#######################'''  
     '                                                          ''''####''''         
             ,#######,   #######,   ,#######,      ##                                
            ,#'     '#,  ##    ##  ,#'     '#,    #''#        ######   ,####,        
            ##       ##  ##   ,#'  ##            #'  '#       #        #'  '#        
            ##       ##  #######   ##           ,######,      #####,   #    #        
            '#,     ,#'  ##    ##  '#,     ,#' ,#      #,         ##   #,  ,#        
             '#######'   ##     ##  '#######'  #'      '#     #####' # '####'        



                  #######################################################
                  #                        -***-                        #
                  #          Department of theory and spectroscopy      #
                  #    Directorship and core code : Frank Neese         #
                  #        Max Planck Institute fuer Kohlenforschung    #
                  #                Kaiser Wilhelm Platz 1               #
                  #                 D-45470 Muelheim/Ruhr               #
                  #                      Germany                        #
                  #                                                     #
                  #                  All rights reserved                #
                  #                        -***-                        #
                  #######################################################


                         Program Version 5.0.1 -  RELEASE  -


 With contributions from (in alphabetic order):
   Daniel Aravena         : Magnetic Suceptibility
   Michael Atanasov       : Ab Initio Ligand Field Theory (pilot matlab implementation)
   Alexander A. Auer      : GIAO ZORA, VPT2 properties, NMR spectrum
   Ute Becker             : Parallelization
   Giovanni Bistoni       : ED, misc. LED, open-shell LED, HFLD
   Martin Brehm           : Molecular dynamics
   Dmytro Bykov           : SCF Hessian
   Vijay G. Chilkuri      : MRCI spin determinant printing, contributions to CSF-ICE
   Dipayan Datta          : RHF DLPNO-CCSD density
   Achintya Kumar Dutta   : EOM-CC, STEOM-CC
   Dmitry Ganyushin       : Spin-Orbit,Spin-Spin,Magnetic field MRCI
   Miquel Garcia          : C-PCM and meta-GGA Hessian, CC/C-PCM, Gaussian charge scheme
   Yang Guo               : DLPNO-NEVPT2, F12-NEVPT2, CIM, IAO-localization
   Andreas Hansen         : Spin unrestricted coupled pair/coupled cluster methods
   Benjamin Helmich-Paris : MC-RPA, TRAH-SCF, COSX integrals
   Lee Huntington         : MR-EOM, pCC
   Robert Izsak           : Overlap fitted RIJCOSX, COSX-SCS-MP3, EOM
   Marcus Kettner         : VPT2
   Christian Kollmar      : KDIIS, OOCD, Brueckner-CCSD(T), CCSD density, CASPT2, CASPT2-K
   Simone Kossmann        : Meta GGA functionals, TD-DFT gradient, OOMP2, MP2 Hessian
   Martin Krupicka        : Initial AUTO-CI
   Lucas Lang             : DCDCAS
   Marvin Lechner         : AUTO-CI (C++ implementation), FIC-MRCC
   Dagmar Lenk            : GEPOL surface, SMD
   Dimitrios Liakos       : Extrapolation schemes; Compound Job, initial MDCI parallelization
   Dimitrios Manganas     : Further ROCIS development; embedding schemes
   Dimitrios Pantazis     : SARC Basis sets
   Anastasios Papadopoulos: AUTO-CI, single reference methods and gradients
   Taras Petrenko         : DFT Hessian,TD-DFT gradient, ASA, ECA, R-Raman, ABS, FL, XAS/XES, NRVS
   Peter Pinski           : DLPNO-MP2, DLPNO-MP2 Gradient
   Christoph Reimann      : Effective Core Potentials
   Marius Retegan         : Local ZFS, SOC
   Christoph Riplinger    : Optimizer, TS searches, QM/MM, DLPNO-CCSD(T), (RO)-DLPNO pert. Triples
   Tobias Risthaus        : Range-separated hybrids, TD-DFT gradient, RPA, STAB
   Michael Roemelt        : Original ROCIS implementation
   Masaaki Saitow         : Open-shell DLPNO-CCSD energy and density
   Barbara Sandhoefer     : DKH picture change effects
   Avijit Sen             : IP-ROCIS
   Kantharuban Sivalingam : CASSCF convergence, NEVPT2, FIC-MRCI
   Bernardo de Souza      : ESD, SOC TD-DFT
   Georgi Stoychev        : AutoAux, RI-MP2 NMR, DLPNO-MP2 response
   Willem Van den Heuvel  : Paramagnetic NMR
   Boris Wezisla          : Elementary symmetry handling
   Frank Wennmohs         : Technical directorship


 We gratefully acknowledge several colleagues who have allowed us to
 interface, adapt or use parts of their codes:
   Stefan Grimme, W. Hujo, H. Kruse, P. Pracht,  : VdW corrections, initial TS optimization,
                  C. Bannwarth, S. Ehlert          DFT functionals, gCP, sTDA/sTD-DF
   Ed Valeev, F. Pavosevic, A. Kumar             : LibInt (2-el integral package), F12 methods
   Garnet Chan, S. Sharma, J. Yang, R. Olivares  : DMRG
   Ulf Ekstrom                                   : XCFun DFT Library
   Mihaly Kallay                                 : mrcc  (arbitrary order and MRCC methods)
   Jiri Pittner, Ondrej Demel                    : Mk-CCSD
   Frank Weinhold                                : gennbo (NPA and NBO analysis)
   Christopher J. Cramer and Donald G. Truhlar   : smd solvation model
   Lars Goerigk                                  : TD-DFT with DH, B97 family of functionals
   V. Asgeirsson, H. Jonsson                     : NEB implementation
   FAccTs GmbH                                   : IRC, NEB, NEB-TS, DLPNO-Multilevel, CI-OPT
                                                   MM, QMMM, 2- and 3-layer-ONIOM, Crystal-QMMM,
                                                   LR-CPCM, SF, NACMEs, symmetry and pop. for TD-DFT,
                                                   nearIR, NL-DFT gradient (VV10), updates on ESD,
                                                   ML-optimized integration grids
   S Lehtola, MJT Oliveira, MAL Marques          : LibXC Library
   Liviu Ungur et al                             : ANISO software


 Your calculation uses the libint2 library for the computation of 2-el integrals
 For citations please refer to: http://libint.valeyev.net

 Your ORCA version has been built with support for libXC version: 5.1.0
 For citations please refer to: https://tddft.org/programs/libxc/

 This ORCA versions uses:
   CBLAS   interface :  Fast vector & matrix operations
   LAPACKE interface :  Fast linear algebra routines
   SCALAPACK package :  Parallel linear algebra routines
   Shared memory     :  Shared parallel matrices
   BLAS/LAPACK       :  OpenBLAS 0.3.15  USE64BITINT DYNAMIC_ARCH NO_AFFINITY Haswell SINGLE_THREADED
        Core in use  :  Haswell
   Copyright (c) 2011-2014, The OpenBLAS Project


SCAN-COORDS

Reading of a custom basis requested
Basis file         : Sn_ano-r3.basis
READING GTO-BASIS: TIN
Basis successfully read

================================================================================

----- Orbital basis set information -----
================================================================================
                                        WARNINGS
                       Please study these warnings very carefully!
================================================================================


INFO   : the flag for use of the SHARK integral package has been found!

================================================================================
                                       INPUT FILE
================================================================================
NAME = Sn_ano-r3_pbe.inp
|  1> !uks pbe nori verytightscf soscf notrah defgrid3
|  2> 
|  3> %pal
|  4>   nprocs 32
|  5> end
|  6> %coords
|  7>   charge 0
|  8>   mult 3
|  9>   units bohrs
| 10>   coords
| 11>     Sn 0.0 0.0 0.0
| 12>   end
| 13> end
| 14> %basis
| 15>   gtoname "Sn_ano-r3.basis"
| 16>   delECP Sn
| 17> end
| 18> %rel
| 19>   method zora
| 20>   modelpot 1, 0, 0, 0
| 21>   c 137.035999084
| 22> endd                         ****END OF INPUT****
================================================================================

                       ****************************
                       * Single Point Calculation *
                       ****************************

---------------------------------
CARTESIAN COORDINATES (ANGSTROEM)
---------------------------------
  Sn     0.000000    0.000000    0.000000

----------------------------
CARTESIAN COORDINATES (A.U.)
----------------------------
  NO LB      ZA    FRAG     MASS         X           Y           Z
   0 Sn   50.0000    0   118.690    0.000000    0.000000    0.000000

--------------------------------
INTERNAL COORDINATES (ANGSTROEM)
--------------------------------
 Sn     0   0   0     0.000000000000     0.00000000     0.00000000

---------------------------
INTERNAL COORDINATES (A.U.)
---------------------------
 Sn     0   0   0     0.000000000000     0.00000000     0.00000000

---------------------
BASIS SET INFORMATION
---------------------
There are 1 groups of distinct atoms

 Group   1 Type Sn  : 184s126p60d18f10g3h contracted to 8s7p5d3f2g1h pattern {2323232323232323/18181818181818/1212121212/666/55/3}

Atom   0Sn   basis set group =>   1


           ************************************************************
           *        Program running with 32 parallel MPI-processes    *
           *              working on a common directory               *
           ************************************************************
------------------------------------------------------------------------------
                           ORCA GTO INTEGRAL CALCULATION
------------------------------------------------------------------------------
------------------------------------------------------------------------------
                   ___                                                        
                  /   \      - P O W E R E D   B Y -                         
                 /     \                                                     
                 |  |  |   _    _      __       _____    __    __             
                 |  |  |  | |  | |    /  \     |  _  \  |  |  /  |          
                  \  \/   | |  | |   /    \    | | | |  |  | /  /          
                 / \  \   | |__| |  /  /\  \   | |_| |  |  |/  /          
                |  |  |   |  __  | /  /__\  \  |    /   |      \           
                |  |  |   | |  | | |   __   |  |    \   |  |\   \          
                \     /   | |  | | |  |  |  |  | |\  \  |  | \   \       
                 \___/    |_|  |_| |__|  |__|  |_| \__\ |__|  \__/        
                                                                              
                      - O R C A' S   B I G   F R I E N D -                    
                                      &                                       
                       - I N T E G R A L  F E E D E R -                       
                                                                              
 v1 FN, 2020, v2 2021                                                         
------------------------------------------------------------------------------


Reading SHARK input file Sn_ano-r3_pbe.SHARKINP.tmp ... ok
----------------------
SHARK INTEGRAL PACKAGE
----------------------

Number of atoms                             ...      1
Number of basis functions                   ...    104
Number of shells                            ...     26
Maximum angular momentum                    ...      5
Integral batch strategy                     ... SHARK/LIBINT Hybrid
RI-J (if used) integral strategy            ... SPLIT-RIJ (Revised 2003 algorithm where possible)
Printlevel                                  ...      1
Contraction scheme used                     ... SEGMENTED contraction
Coulomb Range Separation                    ... NOT USED
Exchange Range Separation                   ... NOT USED
Finite Nucleus Model                        ... NOT USED
Auxiliary Coulomb fitting basis             ... NOT available
Auxiliary J/K fitting basis                 ... NOT available
Auxiliary Correlation fitting basis         ... NOT available
Auxiliary 'external' fitting basis          ... NOT available
Integral threshold                          ...     1.000000e-12
Primitive cut-off                           ...     1.000000e-14
Primitive pair pre-selection threshold      ...     1.000000e-14

Calculating pre-screening integrals         ... done ( 29.1 sec) Dimension = 26
Organizing shell pair data                  ... done (  0.4 sec)
Shell pair information
Total number of shell pairs                 ...       351
Shell pairs after pre-screening             ...       351
Total number of primitive shell pairs       ...     84094
Primitive shell pairs kept                  ...     84082
          la=0 lb=0:     36 shell pairs
          la=1 lb=0:     56 shell pairs
          la=1 lb=1:     28 shell pairs
          la=2 lb=0:     40 shell pairs
          la=2 lb=1:     35 shell pairs
          la=2 lb=2:     15 shell pairs
          la=3 lb=0:     24 shell pairs
          la=3 lb=1:     21 shell pairs
          la=3 lb=2:     15 shell pairs
          la=3 lb=3:      6 shell pairs
          la=4 lb=0:     16 shell pairs
          la=4 lb=1:     14 shell pairs
          la=4 lb=2:     10 shell pairs
          la=4 lb=3:      6 shell pairs
          la=4 lb=4:      3 shell pairs
          la=5 lb=0:      8 shell pairs
          la=5 lb=1:      7 shell pairs
          la=5 lb=2:      5 shell pairs
          la=5 lb=3:      3 shell pairs
          la=5 lb=4:      2 shell pairs
          la=5 lb=5:      1 shell pairs

Calculating one electron integrals          ... done (  0.1 sec)
Calculating Nuclear repulsion               ... done (  0.0 sec) ENN=      0.000000000000 Eh

SHARK setup successfully completed in  30.2 seconds

Maximum memory used throughout the entire GTOINT-calculation: 386.5 MB


           ************************************************************
           *        Program running with 32 parallel MPI-processes    *
           *              working on a common directory               *
           ************************************************************
------------------------------------------------------------------------------
                          ORCA RELATIVISTIC HAMILTONIAN
------------------------------------------------------------------------------

Relativistic Method            ... ZORA(MP)
Treatment of potential         ... Van Wuellen
Nucleus model                  ... Point Nucleus
Speed of light used            ... 137.03599908400000


            *************************************************
            *         ZERO ORDER REGULAR APPROXIMATION      *
            *                     ZORA(MP)                  *
            *            Programmed by FN according to      *
            *                   C. van Wuellen              *
            *       J. Chem. Phys. (1998) vol 109, 392-399  *
            *************************************************

Terms included in model potential: +V(e,N)
Basis function cutoff value   ... 1.000000e-12
Loading the fitted atomic densities  (DKH4)  ... done
Calculating the cutoffs                      ... done
Number of fit functions                      ... 29
Setting up the integration grid ... done

Maximum memory used throughout the entire REL-calculation: 12.2 MB


           ************************************************************
           *        Program running with 32 parallel MPI-processes    *
           *              working on a common directory               *
           ************************************************************
-------------------------------------------------------------------------------
                                 ORCA SCF
-------------------------------------------------------------------------------

------------
SCF SETTINGS
------------
Hamiltonian:
 Density Functional     Method          .... DFT(GTOs)
 Exchange Functional    Exchange        .... PBE
   PBE kappa parameter   XKappa         ....  0.804000
   PBE mue parameter    XMuePBE         ....  0.219520
 Correlation Functional Correlation     .... PBE
   PBE beta parameter  CBetaPBE         ....  0.066725
 LDA part of GGA corr.  LDAOpt          .... PW91-LDA
 Gradients option       PostSCFGGA      .... off
   Density functional embedding theory  .... OFF
   NL short-range parameter             ....  6.400000

Relativistic Settings:
 Scalar relativistic method             .... ZORA
 Speed of light used       Velit        ....       137.035999
Orbital energies will be scaled


General Settings:
 Integral files         IntName         .... Sn_ano-r3_pbe
 Hartree-Fock type      HFTyp           .... UHF
 Total Charge           Charge          ....    0
 Multiplicity           Mult            ....    3
 Number of Electrons    NEL             ....   50
 Basis Dimension        Dim             ....  104
 Nuclear Repulsion      ENuc            ....      0.0000000000 Eh

Convergence Acceleration:
 DIIS                   CNVDIIS         .... on
   Start iteration      DIISMaxIt       ....    12
   Startup error        DIISStart       ....  0.200000
   # of expansion vecs  DIISMaxEq       ....     5
   Bias factor          DIISBfac        ....   1.050
   Max. coefficient     DIISMaxC        ....  10.000
 Trust-Rad. Augm. Hess. CNVTRAH         .... off
 SOSCF                  CNVSOSCF        .... on
   Start iteration      SOSCFMaxIt      ....   150
   Startup grad/error   SOSCFStart      ....  0.003300
 Level Shifting         CNVShift        .... on
   Level shift para.    LevelShift      ....    0.2500
   Turn off err/grad.   ShiftErr        ....    0.0010
 Zerner damping         CNVZerner       .... off
 Static damping         CNVDamp         .... on
   Fraction old density DampFac         ....    0.7000
   Max. Damping (<1)    DampMax         ....    0.9800
   Min. Damping (>=0)   DampMin         ....    0.0000
   Turn off err/grad.   DampErr         ....    0.1000
 Fernandez-Rico         CNVRico         .... off

SCF Procedure:
 Maximum # iterations   MaxIter         ....   125
 SCF integral mode      SCFMode         .... Direct
   Integral package                     .... SHARK and LIBINT hybrid scheme
 Reset frequency        DirectResetFreq ....    20
 Integral Threshold     Thresh          ....  1.000e-12 Eh
 Primitive CutOff       TCut            ....  1.000e-14 Eh

Convergence Tolerance:
 Convergence Check Mode ConvCheckMode   .... Total+1el-Energy
 Convergence forced     ConvForced      .... 0
 Energy Change          TolE            ....  1.000e-09 Eh
 1-El. energy change                    ....  1.000e-06 Eh
 Orbital Gradient       TolG            ....  2.000e-06
 Orbital Rotation angle TolX            ....  2.000e-06
 DIIS Error             TolErr          ....  1.000e-08


Diagonalization of the overlap matrix:
Smallest eigenvalue                        ... 1.000e+00
Time for diagonalization                   ...    0.003 sec
Threshold for overlap eigenvalues          ... 1.000e-08
Number of eigenvalues below threshold      ... 0
Time for construction of square roots      ...    0.009 sec
Total time needed                          ...    0.014 sec

Time for model grid setup =    0.073 sec

------------------------------
INITIAL GUESS: MODEL POTENTIAL
------------------------------
Loading ZORA relativistic densities                ... done
Calculating cut-offs                               ... done
Initializing the effective Hamiltonian             ... done
Setting up the integral package (SHARK)            ... done
Starting the Coulomb interaction                   ... done (   0.3 sec)
Reading the grid                                   ... done
Mapping shells                                     ... done
Starting the XC term evaluation                    ... done (   0.0 sec)
  promolecular density results
     # of electrons  =     50.000300465
     EX              =   -169.581123317
     EC              =     -2.638666589
     EX+EC           =   -172.219789906
Transforming the Hamiltonian                       ... done (   0.0 sec)
Diagonalizing the Hamiltonian                      ... done (   0.0 sec)
Back transforming the eigenvectors                 ... done (   0.0 sec)
Now organizing SCF variables                       ... done
                      ------------------
                      INITIAL GUESS DONE (   0.4 sec)
                      ------------------
-------------------
DFT GRID GENERATION
-------------------

General Integration Accuracy     IntAcc      ... 4.959
Radial Grid Type                 RadialGrid  ... OptM3 with GC (2021)
Angular Grid (max. ang.)         AngularGrid ... 6 (Lebedev-590)
Angular grid pruning method      GridPruning ... 4 (adaptive)
Weight generation scheme         WeightScheme... Becke
Basis function cutoff            BFCut       ... 1.0000e-12
Integration weight cutoff        WCut        ... 1.0000e-14
Angular grids for H and He will be reduced by one unit
Partially contracted basis set               ... off
Rotationally invariant grid construction     ... off

Total number of grid points                  ...    32866
Total number of batches                      ...      514
Average number of points per batch           ...       63
Average number of grid points per atom       ...    32866
Time for grid setup =    0.978 sec

--------------
SCF ITERATIONS
--------------
ITER       Energy         Delta-E        Max-DP      RMS-DP      [F,P]     Damp
               ***  Starting incremental Fock matrix formation  ***
  0  -6279.7659211373   0.000000000000 0.00825906  0.00021640  0.2973023 0.7000
  1  -6279.7773454491  -0.011424311793 0.00715006  0.00013218  0.2024309 0.7000
                               ***Turning on DIIS***
  2  -6279.7829906555  -0.005645206369 0.00460048  0.00007612  0.1385594 0.7000
  3  -6279.7866062483  -0.003615592823 0.00992706  0.00016129  0.0953638 0.0000
  4  -6279.7947072295  -0.008100981176 0.00224819  0.00005650  0.0098639 0.0000
  5  -6279.7947393694  -0.000032139922 0.00088472  0.00002275  0.0081593 0.0000
                      *** Initiating the SOSCF procedure ***
                           *** Shutting down DIIS ***
                      *** Re-Reading the Fockian *** 
                      *** Removing any level shift *** 
ITER      Energy       Delta-E        Grad      Rot      Max-DP    RMS-DP
  6  -6279.79481200  -0.0000726327  0.000234  0.000234  0.000375  0.000007
               *** Restarting incremental Fock matrix formation ***
  7  -6279.79481279  -0.0000007831  0.000116  0.000274  0.000271  0.000004
  8  -6279.79481276   0.0000000267  0.000150  0.000097  0.000099  0.000002
  9  -6279.79481289  -0.0000001330  0.000012  0.000021  0.000020  0.000000
 10  -6279.79481289  -0.0000000005  0.000005  0.000007  0.000007  0.000000
                 **** Energy Check signals convergence ****
              ***Rediagonalizing the Fockian in SOSCF/NRSCF***

               *****************************************************
               *                     SUCCESS                       *
               *           SCF CONVERGED AFTER  11 CYCLES          *
               *****************************************************


----------------
TOTAL SCF ENERGY
----------------

Total Energy       :        -6279.79481289 Eh         -170881.90433 eV

Components:
Nuclear Repulsion  :            0.00000000 Eh               0.00000 eV
Electronic Energy  :        -6279.79481289 Eh         -170881.90433 eV
One Electron Energy:        -8600.09323547 Eh         -234020.43431 eV
Two Electron Energy:         2320.29842257 Eh           63138.52998 eV

Virial components:
Potential Energy   :       -12956.13798139 Eh         -352554.43799 eV
Kinetic Energy     :         6676.34316849 Eh          181672.53367 eV
Virial Ratio       :            1.94060396


DFT components:
N(Alpha)           :       25.999999982328 electrons
N(Beta)            :       23.999999982083 electrons
N(Total)           :       49.999999964411 electrons
E(X)               :     -163.881030751540 Eh       
E(C)               :       -2.637860673188 Eh       
E(XC)              :     -166.518891424727 Eh       
DFET-embed. en.    :        0.000000000000 Eh       

---------------
SCF CONVERGENCE
---------------

  Last Energy change         ...   -1.2187e-10  Tolerance :   1.0000e-09
  Last MAX-Density change    ...    1.0732e-07  Tolerance :   1.0000e-08
  Last RMS-Density change    ...    1.1157e-09  Tolerance :   1.0000e-09
  Last Orbital Gradient      ...    6.9242e-08  Tolerance :   2.0000e-06
  Last Orbital Rotation      ...    1.2711e-07  Tolerance :   2.0000e-06

             **** THE GBW FILE WAS UPDATED (Sn_ano-r3_pbe.gbw) ****
             **** DENSITY Sn_ano-r3_pbe.scfp WAS UPDATED ****
             **** ENERGY FILE WAS UPDATED (Sn_ano-r3_pbe.en.tmp) ****
----------------------
UHF SPIN CONTAMINATION
----------------------

Warning: in a DFT calculation there is little theoretical justification to 
         calculate <S**2> as in Hartree-Fock theory. We will do it anyways
         but you should keep in mind that the values have only limited relevance

Expectation value of <S**2>     :     2.001915
Ideal value S*(S+1) for S=1.0   :     2.000000
Deviation                       :     0.001915

             **** THE GBW FILE WAS UPDATED (Sn_ano-r3_pbe.gbw) ****
             **** DENSITY Sn_ano-r3_pbe.scfp WAS UPDATED ****
----------------
ORBITAL ENERGIES
----------------
                 SPIN UP ORBITALS
  NO   OCC          E(Eh)            E(eV) 
   0   1.0000   -1103.885317    -30038.2466 
   1   1.0000    -162.463908     -4420.8677 
   2   1.0000    -146.360919     -3982.6831 
   3   1.0000    -146.359456     -3982.6433 
   4   1.0000    -146.359456     -3982.6433 
   5   1.0000     -31.188263      -848.6758 
   6   1.0000     -25.877855      -704.1722 
   7   1.0000     -25.874034      -704.0683 
   8   1.0000     -25.874034      -704.0683 
   9   1.0000     -17.500483      -476.2123 
  10   1.0000     -17.499624      -476.1890 
  11   1.0000     -17.499624      -476.1890 
  12   1.0000     -17.497031      -476.1184 
  13   1.0000     -17.497031      -476.1184 
  14   1.0000      -4.923441      -133.9736 
  15   1.0000      -3.316196       -90.2383 
  16   1.0000      -3.306520       -89.9750 
  17   1.0000      -3.306520       -89.9750 
  18   1.0000      -0.951591       -25.8941 
  19   1.0000      -0.949177       -25.8284 
  20   1.0000      -0.949177       -25.8284 
  21   1.0000      -0.940832       -25.6013 
  22   1.0000      -0.940832       -25.6013 
  23   1.0000      -0.401008       -10.9120 
  24   1.0000      -0.151618        -4.1257 
  25   1.0000      -0.151618        -4.1257 
  26   0.0000      -0.148045        -4.0285 
  27   0.0000      -0.006885        -0.1873 
  28   0.0000       0.115823         3.1517 
  29   0.0000       0.115823         3.1517 
  30   0.0000       0.116187         3.1616 
  31   0.0000       0.149947         4.0803 
  32   0.0000       0.149947         4.0803 
  33   0.0000       0.152273         4.1436 
  34   0.0000       0.152273         4.1436 
  35   0.0000       0.159037         4.3276 
  36   0.0000       0.392574        10.6825 
  37   0.0000       0.636851        17.3296 
  38   0.0000       0.636851        17.3296 
  39   0.0000       0.638868        17.3845 
  40   0.0000       0.638868        17.3845 
  41   0.0000       0.639286        17.3959 
  42   0.0000       0.639286        17.3959 
  43   0.0000       0.641279        17.4501 
  44   0.0000       1.057073        28.7644 
  45   0.0000       1.061037        28.8723 
  46   0.0000       1.061037        28.8723 
  47   0.0000       1.177479        32.0408 
  48   0.0000       1.177479        32.0408 
  49   0.0000       1.178434        32.0668 
  50   0.0000       1.182038        32.1649 
  51   0.0000       1.182038        32.1649 
  52   0.0000       1.854670        50.4681 
  53   0.0000       1.855161        50.4815 
  54   0.0000       1.855161        50.4815 
  55   0.0000       1.857845        50.5545 
  56   0.0000       1.857845        50.5545 
  57   0.0000       1.864317        50.7306 
  58   0.0000       1.864317        50.7306 
  59   0.0000       2.365142        64.3588 
  60   0.0000       2.365142        64.3588 
  61   0.0000       2.365250        64.3617 
  62   0.0000       2.365255        64.3619 
  63   0.0000       2.365255        64.3619 
  64   0.0000       2.367109        64.4123 
  65   0.0000       2.367109        64.4123 
  66   0.0000       2.371923        64.5433 
  67   0.0000       2.371923        64.5433 
  68   0.0000       3.153651        85.8152 
  69   0.0000       4.796331       130.5148 
  70   0.0000       4.796867       130.5294 
  71   0.0000       4.796867       130.5294 
  72   0.0000       4.799084       130.5897 
  73   0.0000       4.799084       130.5897 
  74   0.0000       4.803853       130.7195 
  75   0.0000       4.803853       130.7195 
  76   0.0000       4.954003       134.8053 
  77   0.0000       4.961562       135.0110 
  78   0.0000       4.961562       135.0110 
  79   0.0000       5.450584       148.3179 
  80   0.0000       5.451283       148.3369 
  81   0.0000       5.451283       148.3369 
  82   0.0000       5.457031       148.4934 
  83   0.0000       5.457031       148.4934 
  84   0.0000       7.483684       203.6414 
  85   0.0000       7.484162       203.6544 
  86   0.0000       7.484162       203.6544 
  87   0.0000       7.485692       203.6960 
  88   0.0000       7.485692       203.6960 
  89   0.0000       7.488689       203.7776 
  90   0.0000       7.488689       203.7776 
  91   0.0000       7.493457       203.9073 
  92   0.0000       7.493457       203.9073 
  93   0.0000       8.426558       229.2983 
  94   0.0000       8.427127       229.3138 
  95   0.0000       8.427127       229.3138 
  96   0.0000       8.428863       229.3610 
  97   0.0000       8.428863       229.3610 
  98   0.0000       8.431886       229.4433 
  99   0.0000       8.431886       229.4433 
 100   0.0000       8.436336       229.5644 
 101   0.0000       8.436336       229.5644 
 102   0.0000       8.442320       229.7272 
 103   0.0000       8.442320       229.7272 

                 SPIN DOWN ORBITALS
  NO   OCC          E(Eh)            E(eV) 
   0   1.0000   -1103.884256    -30038.2177 
   1   1.0000    -162.463590     -4420.8590 
   2   1.0000    -146.360613     -3982.6748 
   3   1.0000    -146.358428     -3982.6153 
   4   1.0000    -146.358428     -3982.6153 
   5   1.0000     -31.187345      -848.6508 
   6   1.0000     -25.877466      -704.1616 
   7   1.0000     -25.872664      -704.0310 
   8   1.0000     -25.872664      -704.0310 
   9   1.0000     -17.499990      -476.1989 
  10   1.0000     -17.498905      -476.1694 
  11   1.0000     -17.498905      -476.1694 
  12   1.0000     -17.495621      -476.0800 
  13   1.0000     -17.495621      -476.0800 
  14   1.0000      -4.921374      -133.9174 
  15   1.0000      -3.315561       -90.2210 
  16   1.0000      -3.303416       -89.8905 
  17   1.0000      -3.303416       -89.8905 
  18   1.0000      -0.948389       -25.8070 
  19   1.0000      -0.944237       -25.6940 
  20   1.0000      -0.944237       -25.6940 
  21   1.0000      -0.932459       -25.3735 
  22   1.0000      -0.932459       -25.3735 
  23   1.0000      -0.359805        -9.7908 
  24   0.0000      -0.124088        -3.3766 
  25   0.0000      -0.096313        -2.6208 
  26   0.0000      -0.096313        -2.6208 
  27   0.0000       0.024534         0.6676 
  28   0.0000       0.138222         3.7612 
  29   0.0000       0.156564         4.2603 
  30   0.0000       0.156564         4.2603 
  31   0.0000       0.187714         5.1080 
  32   0.0000       0.192485         5.2378 
  33   0.0000       0.192485         5.2378 
  34   0.0000       0.210111         5.7174 
  35   0.0000       0.210111         5.7174 
  36   0.0000       0.427048        11.6206 
  37   0.0000       0.671277        18.2664 
  38   0.0000       0.674399        18.3513 
  39   0.0000       0.674399        18.3513 
  40   0.0000       0.684524        18.6268 
  41   0.0000       0.684524        18.6268 
  42   0.0000       0.702475        19.1153 
  43   0.0000       0.702475        19.1153 
  44   0.0000       1.073050        29.1992 
  45   0.0000       1.096968        29.8500 
  46   0.0000       1.096968        29.8500 
  47   0.0000       1.197856        32.5953 
  48   0.0000       1.203898        32.7597 
  49   0.0000       1.203898        32.7597 
  50   0.0000       1.222829        33.2749 
  51   0.0000       1.222829        33.2749 
  52   0.0000       1.863232        50.7011 
  53   0.0000       1.865290        50.7571 
  54   0.0000       1.865290        50.7571 
  55   0.0000       1.871735        50.9325 
  56   0.0000       1.871735        50.9325 
  57   0.0000       1.882783        51.2331 
  58   0.0000       1.882783        51.2331 
  59   0.0000       2.388849        65.0039 
  60   0.0000       2.390915        65.0601 
  61   0.0000       2.390915        65.0601 
  62   0.0000       2.397245        65.2323 
  63   0.0000       2.397245        65.2323 
  64   0.0000       2.407958        65.5239 
  65   0.0000       2.407958        65.5239 
  66   0.0000       2.423085        65.9355 
  67   0.0000       2.423085        65.9355 
  68   0.0000       3.172635        86.3318 
  69   0.0000       4.804219       130.7295 
  70   0.0000       4.806112       130.7810 
  71   0.0000       4.806112       130.7810 
  72   0.0000       4.811874       130.9377 
  73   0.0000       4.811874       130.9377 
  74   0.0000       4.821538       131.2007 
  75   0.0000       4.821538       131.2007 
  76   0.0000       4.960265       134.9757 
  77   0.0000       4.976677       135.4223 
  78   0.0000       4.976677       135.4223 
  79   0.0000       5.458212       148.5255 
  80   0.0000       5.461761       148.6221 
  81   0.0000       5.461761       148.6221 
  82   0.0000       5.472691       148.9195 
  83   0.0000       5.472691       148.9195 
  84   0.0000       7.488160       203.7632 
  85   0.0000       7.489131       203.7896 
  86   0.0000       7.489131       203.7896 
  87   0.0000       7.492093       203.8702 
  88   0.0000       7.492093       203.8702 
  89   0.0000       7.497088       204.0061 
  90   0.0000       7.497088       204.0061 
  91   0.0000       7.504127       204.1977 
  92   0.0000       7.504127       204.1977 
  93   0.0000       8.431666       229.4373 
  94   0.0000       8.432578       229.4621 
  95   0.0000       8.432578       229.4621 
  96   0.0000       8.435313       229.5365 
  97   0.0000       8.435313       229.5365 
  98   0.0000       8.439867       229.6605 
  99   0.0000       8.439867       229.6605 
 100   0.0000       8.446221       229.8334 
 101   0.0000       8.446221       229.8334 
 102   0.0000       8.454347       230.0545 
 103   0.0000       8.454347       230.0545 

                    ********************************
                    * MULLIKEN POPULATION ANALYSIS *
                    ********************************

--------------------------------------------
MULLIKEN ATOMIC CHARGES AND SPIN POPULATIONS
--------------------------------------------
   0 Sn:   -0.000000    2.000000
Sum of atomic charges         :   -0.0000000
Sum of atomic spin populations:    2.0000000

-----------------------------------------------------
MULLIKEN REDUCED ORBITAL CHARGES AND SPIN POPULATIONS
-----------------------------------------------------
CHARGE
  0 Sns       :     9.999024  s :     9.999024
      pz      :     6.999605  p :    19.999984
      px      :     6.995943
      py      :     6.004436
      dz2     :     4.000236  d :    20.000928
      dxz     :     3.999994
      dyz     :     3.999990
      dx2y2   :     4.000708
      dxy     :     4.000001
      f0      :     0.000002  f :     0.000016
      f+1     :     0.000000
      f-1     :     0.000002
      f+2     :     0.000003
      f-2     :     0.000000
      f+3     :     0.000005
      f-3     :     0.000003
      g0      :     0.000004  g :     0.000047
      g+1     :     0.000001
      g-1     :     0.000006
      g+2     :     0.000006
      g-2     :     0.000001
      g+3     :     0.000005
      g-3     :     0.000005
      g+4     :     0.000010
      g-4     :     0.000010
      h0      :     0.000000  h :     0.000000
      h+1     :     0.000000
      h-1     :     0.000000
      h+2     :     0.000000
      h-2     :     0.000000
      h+3     :     0.000000
      h-3     :     0.000000
      h+4     :     0.000000
      h-4     :     0.000000
      h+5     :     0.000000
      h-5     :     0.000000

SPIN
  0 Sns       :     0.000909  s :     0.000909
      pz      :     0.999609  p :     2.000000
      px      :     0.995948
      py      :     0.004443
      dz2     :    -0.000222  d :    -0.000881
      dxz     :     0.000003
      dyz     :     0.000006
      dx2y2   :    -0.000664
      dxy     :    -0.000004
      f0      :     0.000000  f :    -0.000000
      f+1     :     0.000000
      f-1     :    -0.000001
      f+2     :     0.000000
      f-2     :     0.000000
      f+3     :     0.000001
      f-3     :    -0.000001
      g0      :    -0.000002  g :    -0.000028
      g+1     :    -0.000000
      g-1     :    -0.000004
      g+2     :    -0.000003
      g-2     :    -0.000001
      g+3     :    -0.000003
      g-3     :    -0.000003
      g+4     :    -0.000006
      g-4     :    -0.000006
      h0      :     0.000000  h :     0.000000
      h+1     :     0.000000
      h-1     :     0.000000
      h+2     :     0.000000
      h-2     :     0.000000
      h+3     :     0.000000
      h-3     :     0.000000
      h+4     :     0.000000
      h-4     :     0.000000
      h+5     :     0.000000
      h-5     :     0.000000


                     *******************************
                     * LOEWDIN POPULATION ANALYSIS *
                     *******************************

-------------------------------------------
LOEWDIN ATOMIC CHARGES AND SPIN POPULATIONS
-------------------------------------------
   0 Sn:   -0.000000    2.000000

----------------------------------------------------
LOEWDIN REDUCED ORBITAL CHARGES AND SPIN POPULATIONS
----------------------------------------------------
CHARGE
  0 Sns       :     9.999024  s :     9.999024
      pz      :     6.999605  p :    19.999984
      px      :     6.995943
      py      :     6.004436
      dz2     :     4.000236  d :    20.000928
      dxz     :     3.999994
      dyz     :     3.999990
      dx2y2   :     4.000708
      dxy     :     4.000001
      f0      :     0.000002  f :     0.000016
      f+1     :     0.000000
      f-1     :     0.000002
      f+2     :     0.000003
      f-2     :     0.000000
      f+3     :     0.000005
      f-3     :     0.000003
      g0      :     0.000004  g :     0.000047
      g+1     :     0.000001
      g-1     :     0.000006
      g+2     :     0.000006
      g-2     :     0.000001
      g+3     :     0.000005
      g-3     :     0.000005
      g+4     :     0.000010
      g-4     :     0.000010
      h0      :     0.000000  h :     0.000000
      h+1     :     0.000000
      h-1     :     0.000000
      h+2     :     0.000000
      h-2     :     0.000000
      h+3     :     0.000000
      h-3     :     0.000000
      h+4     :     0.000000
      h-4     :     0.000000
      h+5     :     0.000000
      h-5     :     0.000000

SPIN
  0 Sns       :     0.000909  s :     0.000909
      pz      :     0.999609  p :     2.000000
      px      :     0.995948
      py      :     0.004443
      dz2     :    -0.000222  d :    -0.000881
      dxz     :     0.000003
      dyz     :     0.000006
      dx2y2   :    -0.000664
      dxy     :    -0.000004
      f0      :     0.000000  f :    -0.000000
      f+1     :     0.000000
      f-1     :    -0.000001
      f+2     :     0.000000
      f-2     :     0.000000
      f+3     :     0.000001
      f-3     :    -0.000001
      g0      :    -0.000002  g :    -0.000028
      g+1     :    -0.000000
      g-1     :    -0.000004
      g+2     :    -0.000003
      g-2     :    -0.000001
      g+3     :    -0.000003
      g-3     :    -0.000003
      g+4     :    -0.000006
      g-4     :    -0.000006
      h0      :     0.000000  h :     0.000000
      h+1     :     0.000000
      h-1     :     0.000000
      h+2     :     0.000000
      h-2     :     0.000000
      h+3     :     0.000000
      h-3     :     0.000000
      h+4     :     0.000000
      h-4     :     0.000000
      h+5     :     0.000000
      h-5     :     0.000000


                      *****************************
                      * MAYER POPULATION ANALYSIS *
                      *****************************

  NA   - Mulliken gross atomic population
  ZA   - Total nuclear charge
  QA   - Mulliken gross atomic charge
  VA   - Mayer's total valence
  BVA  - Mayer's bonded valence
  FA   - Mayer's free valence

  ATOM       NA         ZA         QA         VA         BVA        FA
  0 Sn    50.0000    50.0000    -0.0000     2.0038     0.0000     2.0038

  Mayer bond orders larger than 0.100000


-------
TIMINGS
-------

Total SCF time: 0 days 0 hours 48 min 13 sec 

Total time                  ....    2893.074 sec
Sum of individual times     ....    2888.794 sec  ( 99.9%)

Fock matrix formation       ....    2886.760 sec  ( 99.8%)
  XC integration            ....       1.831 sec  (  0.1% of F)
    Basis function eval.    ....       0.149 sec  (  8.2% of XC)
    Density eval.           ....       0.158 sec  (  8.6% of XC)
    XC-Functional eval.     ....       0.081 sec  (  4.4% of XC)
    XC-Potential eval.      ....       0.093 sec  (  5.1% of XC)
Diagonalization             ....       0.145 sec  (  0.0%)
Density matrix formation    ....       0.007 sec  (  0.0%)
Population analysis         ....       0.114 sec  (  0.0%)
Initial guess               ....       0.282 sec  (  0.0%)
Orbital Transformation      ....       0.000 sec  (  0.0%)
Orbital Orthonormalization  ....       0.000 sec  (  0.0%)
DIIS solution               ....       0.112 sec  (  0.0%)
SOSCF solution              ....       0.323 sec  (  0.0%)
Grid generation             ....       1.051 sec  (  0.0%)

Maximum memory used throughout the entire SCF-calculation: 267.5 MB

-------------------------   --------------------
FINAL SINGLE POINT ENERGY     -6279.794812892130
-------------------------   --------------------


                            ***************************************
                            *     ORCA property calculations      *
                            ***************************************

                                    ---------------------
                                    Active property flags
                                    ---------------------
   (+) Dipole Moment


------------------------------------------------------------------------------
                       ORCA ELECTRIC PROPERTIES CALCULATION
------------------------------------------------------------------------------

Dipole Moment Calculation                       ... on
Quadrupole Moment Calculation                   ... off
Polarizability Calculation                      ... off
GBWName                                         ... Sn_ano-r3_pbe.gbw
Electron density                                ... Sn_ano-r3_pbe.scfp
The origin for moment calculation is the CENTER OF MASS  = ( 0.000000,  0.000000  0.000000)

-------------
DIPOLE MOMENT
-------------
                                X             Y             Z
Electronic contribution:     -0.00000      -0.00000      -0.00000
Nuclear contribution   :      0.00000       0.00000       0.00000
                        -----------------------------------------
Total Dipole Moment    :     -0.00000      -0.00000      -0.00000
                        -----------------------------------------
Magnitude (a.u.)       :      0.00000
Magnitude (Debye)      :      0.00000



--------------------
Rotational spectrum 
--------------------
 
Rotational constants in cm-1:     0.000000     0.000000     0.000000 
Rotational constants in MHz :     0.000000     0.000000     0.000000 

 Dipole components along the rotational axes: 
x,y,z [a.u.] :    -0.000000    -0.000000    -0.000000 
x,y,z [Debye]:    -0.000000    -0.000000    -0.000000 

 

Timings for individual modules:

Sum of individual times         ...     2933.783 sec (=  48.896 min)
GTO integral calculation        ...       34.139 sec (=   0.569 min)   1.2 %
Relativistic integrals          ...        3.607 sec (=   0.060 min)   0.1 %
SCF iterations                  ...     2896.037 sec (=  48.267 min)  98.7 %
                             ****ORCA TERMINATED NORMALLY****
TOTAL RUN TIME: 0 days 0 hours 49 minutes 1 seconds 211 msec
