
                                 *****************
                                 * O   R   C   A *
                                 *****************

                                            #,                                       
                                            ###                                      
                                            ####                                     
                                            #####                                    
                                            ######                                   
                                           ########,                                 
                                     ,,################,,,,,                         
                               ,,#################################,,                 
                          ,,##########################################,,             
                       ,#########################################, ''#####,          
                    ,#############################################,,   '####,        
                  ,##################################################,,,,####,       
                ,###########''''           ''''###############################       
              ,#####''   ,,,,##########,,,,          '''####'''          '####       
            ,##' ,,,,###########################,,,                        '##       
           ' ,,###''''                  '''############,,,                           
         ,,##''                                '''############,,,,        ,,,,,,###''
      ,#''                                            '''#######################'''  
     '                                                          ''''####''''         
             ,#######,   #######,   ,#######,      ##                                
            ,#'     '#,  ##    ##  ,#'     '#,    #''#        ######   ,####,        
            ##       ##  ##   ,#'  ##            #'  '#       #        #'  '#        
            ##       ##  #######   ##           ,######,      #####,   #    #        
            '#,     ,#'  ##    ##  '#,     ,#' ,#      #,         ##   #,  ,#        
             '#######'   ##     ##  '#######'  #'      '#     #####' # '####'        



                  #######################################################
                  #                        -***-                        #
                  #          Department of theory and spectroscopy      #
                  #    Directorship and core code : Frank Neese         #
                  #        Max Planck Institute fuer Kohlenforschung    #
                  #                Kaiser Wilhelm Platz 1               #
                  #                 D-45470 Muelheim/Ruhr               #
                  #                      Germany                        #
                  #                                                     #
                  #                  All rights reserved                #
                  #                        -***-                        #
                  #######################################################


                         Program Version 5.0.1 -  RELEASE  -


 With contributions from (in alphabetic order):
   Daniel Aravena         : Magnetic Suceptibility
   Michael Atanasov       : Ab Initio Ligand Field Theory (pilot matlab implementation)
   Alexander A. Auer      : GIAO ZORA, VPT2 properties, NMR spectrum
   Ute Becker             : Parallelization
   Giovanni Bistoni       : ED, misc. LED, open-shell LED, HFLD
   Martin Brehm           : Molecular dynamics
   Dmytro Bykov           : SCF Hessian
   Vijay G. Chilkuri      : MRCI spin determinant printing, contributions to CSF-ICE
   Dipayan Datta          : RHF DLPNO-CCSD density
   Achintya Kumar Dutta   : EOM-CC, STEOM-CC
   Dmitry Ganyushin       : Spin-Orbit,Spin-Spin,Magnetic field MRCI
   Miquel Garcia          : C-PCM and meta-GGA Hessian, CC/C-PCM, Gaussian charge scheme
   Yang Guo               : DLPNO-NEVPT2, F12-NEVPT2, CIM, IAO-localization
   Andreas Hansen         : Spin unrestricted coupled pair/coupled cluster methods
   Benjamin Helmich-Paris : MC-RPA, TRAH-SCF, COSX integrals
   Lee Huntington         : MR-EOM, pCC
   Robert Izsak           : Overlap fitted RIJCOSX, COSX-SCS-MP3, EOM
   Marcus Kettner         : VPT2
   Christian Kollmar      : KDIIS, OOCD, Brueckner-CCSD(T), CCSD density, CASPT2, CASPT2-K
   Simone Kossmann        : Meta GGA functionals, TD-DFT gradient, OOMP2, MP2 Hessian
   Martin Krupicka        : Initial AUTO-CI
   Lucas Lang             : DCDCAS
   Marvin Lechner         : AUTO-CI (C++ implementation), FIC-MRCC
   Dagmar Lenk            : GEPOL surface, SMD
   Dimitrios Liakos       : Extrapolation schemes; Compound Job, initial MDCI parallelization
   Dimitrios Manganas     : Further ROCIS development; embedding schemes
   Dimitrios Pantazis     : SARC Basis sets
   Anastasios Papadopoulos: AUTO-CI, single reference methods and gradients
   Taras Petrenko         : DFT Hessian,TD-DFT gradient, ASA, ECA, R-Raman, ABS, FL, XAS/XES, NRVS
   Peter Pinski           : DLPNO-MP2, DLPNO-MP2 Gradient
   Christoph Reimann      : Effective Core Potentials
   Marius Retegan         : Local ZFS, SOC
   Christoph Riplinger    : Optimizer, TS searches, QM/MM, DLPNO-CCSD(T), (RO)-DLPNO pert. Triples
   Tobias Risthaus        : Range-separated hybrids, TD-DFT gradient, RPA, STAB
   Michael Roemelt        : Original ROCIS implementation
   Masaaki Saitow         : Open-shell DLPNO-CCSD energy and density
   Barbara Sandhoefer     : DKH picture change effects
   Avijit Sen             : IP-ROCIS
   Kantharuban Sivalingam : CASSCF convergence, NEVPT2, FIC-MRCI
   Bernardo de Souza      : ESD, SOC TD-DFT
   Georgi Stoychev        : AutoAux, RI-MP2 NMR, DLPNO-MP2 response
   Willem Van den Heuvel  : Paramagnetic NMR
   Boris Wezisla          : Elementary symmetry handling
   Frank Wennmohs         : Technical directorship


 We gratefully acknowledge several colleagues who have allowed us to
 interface, adapt or use parts of their codes:
   Stefan Grimme, W. Hujo, H. Kruse, P. Pracht,  : VdW corrections, initial TS optimization,
                  C. Bannwarth, S. Ehlert          DFT functionals, gCP, sTDA/sTD-DF
   Ed Valeev, F. Pavosevic, A. Kumar             : LibInt (2-el integral package), F12 methods
   Garnet Chan, S. Sharma, J. Yang, R. Olivares  : DMRG
   Ulf Ekstrom                                   : XCFun DFT Library
   Mihaly Kallay                                 : mrcc  (arbitrary order and MRCC methods)
   Jiri Pittner, Ondrej Demel                    : Mk-CCSD
   Frank Weinhold                                : gennbo (NPA and NBO analysis)
   Christopher J. Cramer and Donald G. Truhlar   : smd solvation model
   Lars Goerigk                                  : TD-DFT with DH, B97 family of functionals
   V. Asgeirsson, H. Jonsson                     : NEB implementation
   FAccTs GmbH                                   : IRC, NEB, NEB-TS, DLPNO-Multilevel, CI-OPT
                                                   MM, QMMM, 2- and 3-layer-ONIOM, Crystal-QMMM,
                                                   LR-CPCM, SF, NACMEs, symmetry and pop. for TD-DFT,
                                                   nearIR, NL-DFT gradient (VV10), updates on ESD,
                                                   ML-optimized integration grids
   S Lehtola, MJT Oliveira, MAL Marques          : LibXC Library
   Liviu Ungur et al                             : ANISO software


 Your calculation uses the libint2 library for the computation of 2-el integrals
 For citations please refer to: http://libint.valeyev.net

 Your ORCA version has been built with support for libXC version: 5.1.0
 For citations please refer to: https://tddft.org/programs/libxc/

 This ORCA versions uses:
   CBLAS   interface :  Fast vector & matrix operations
   LAPACKE interface :  Fast linear algebra routines
   SCALAPACK package :  Parallel linear algebra routines
   Shared memory     :  Shared parallel matrices
   BLAS/LAPACK       :  OpenBLAS 0.3.15  USE64BITINT DYNAMIC_ARCH NO_AFFINITY Haswell SINGLE_THREADED
        Core in use  :  Haswell
   Copyright (c) 2011-2014, The OpenBLAS Project


SCAN-COORDS

Reading of a custom basis requested
Basis file         : Sr_sarc-zora-tzvpp.basis
READING GTO-BASIS: STRONTIUM
Basis successfully read

================================================================================

----- Orbital basis set information -----
================================================================================
                                        WARNINGS
                       Please study these warnings very carefully!
================================================================================


INFO   : the flag for use of the SHARK integral package has been found!

================================================================================
                                       INPUT FILE
================================================================================
NAME = Sr_sarc-zora-tzvpp_pbe.inp
|  1> !uks pbe nori verytightscf soscf notrah defgrid3
|  2> 
|  3> %pal
|  4>   nprocs 32
|  5> end
|  6> %coords
|  7>   charge 0
|  8>   mult 1
|  9>   units bohrs
| 10>   coords
| 11>     Sr 0.0 0.0 0.0
| 12>   end
| 13> end
| 14> %basis
| 15>   gtoname "Sr_sarc-zora-tzvpp.basis"
| 16>   delECP Sr
| 17> end
| 18> %rel
| 19>   method zora
| 20>   modelpot 1, 0, 0, 0
| 21>   c 137.035999084
| 22> endd                         ****END OF INPUT****
================================================================================

                       ****************************
                       * Single Point Calculation *
                       ****************************

---------------------------------
CARTESIAN COORDINATES (ANGSTROEM)
---------------------------------
  Sr     0.000000    0.000000    0.000000

----------------------------
CARTESIAN COORDINATES (A.U.)
----------------------------
  NO LB      ZA    FRAG     MASS         X           Y           Z
   0 Sr   38.0000    0    87.620    0.000000    0.000000    0.000000

--------------------------------
INTERNAL COORDINATES (ANGSTROEM)
--------------------------------
 Sr     0   0   0     0.000000000000     0.00000000     0.00000000

---------------------------
INTERNAL COORDINATES (A.U.)
---------------------------
 Sr     0   0   0     0.000000000000     0.00000000     0.00000000

---------------------
BASIS SET INFORMATION
---------------------
There are 1 groups of distinct atoms

 Group   1 Type Sr  : 22s15p9d1f contracted to 15s10p5d1f pattern {811111111111111/6111111111/51111/1}

Atom   0Sr   basis set group =>   1


           ************************************************************
           *        Program running with 32 parallel MPI-processes    *
           *              working on a common directory               *
           ************************************************************
------------------------------------------------------------------------------
                           ORCA GTO INTEGRAL CALCULATION
------------------------------------------------------------------------------
------------------------------------------------------------------------------
                   ___                                                        
                  /   \      - P O W E R E D   B Y -                         
                 /     \                                                     
                 |  |  |   _    _      __       _____    __    __             
                 |  |  |  | |  | |    /  \     |  _  \  |  |  /  |          
                  \  \/   | |  | |   /    \    | | | |  |  | /  /          
                 / \  \   | |__| |  /  /\  \   | |_| |  |  |/  /          
                |  |  |   |  __  | /  /__\  \  |    /   |      \           
                |  |  |   | |  | | |   __   |  |    \   |  |\   \          
                \     /   | |  | | |  |  |  |  | |\  \  |  | \   \       
                 \___/    |_|  |_| |__|  |__|  |_| \__\ |__|  \__/        
                                                                              
                      - O R C A' S   B I G   F R I E N D -                    
                                      &                                       
                       - I N T E G R A L  F E E D E R -                       
                                                                              
 v1 FN, 2020, v2 2021                                                         
------------------------------------------------------------------------------


Reading SHARK input file Sr_sarc-zora-tzvpp_pbe.SHARKINP.tmp ... ok
----------------------
SHARK INTEGRAL PACKAGE
----------------------

Number of atoms                             ...      1
Number of basis functions                   ...     77
Number of shells                            ...     31
Maximum angular momentum                    ...      3
Integral batch strategy                     ... SHARK/LIBINT Hybrid
RI-J (if used) integral strategy            ... SPLIT-RIJ (Revised 2003 algorithm where possible)
Printlevel                                  ...      1
Contraction scheme used                     ... SEGMENTED contraction
Coulomb Range Separation                    ... NOT USED
Exchange Range Separation                   ... NOT USED
Finite Nucleus Model                        ... NOT USED
Auxiliary Coulomb fitting basis             ... NOT available
Auxiliary J/K fitting basis                 ... NOT available
Auxiliary Correlation fitting basis         ... NOT available
Auxiliary 'external' fitting basis          ... NOT available
Integral threshold                          ...     1.000000e-12
Primitive cut-off                           ...     1.000000e-14
Primitive pair pre-selection threshold      ...     1.000000e-14

Calculating pre-screening integrals         ... done (  0.4 sec) Dimension = 31
Organizing shell pair data                  ... done (  0.1 sec)
Shell pair information
Total number of shell pairs                 ...       496
Shell pairs after pre-screening             ...       496
Total number of primitive shell pairs       ...      1181
Primitive shell pairs kept                  ...      1181
          la=0 lb=0:    120 shell pairs
          la=1 lb=0:    150 shell pairs
          la=1 lb=1:     55 shell pairs
          la=2 lb=0:     75 shell pairs
          la=2 lb=1:     50 shell pairs
          la=2 lb=2:     15 shell pairs
          la=3 lb=0:     15 shell pairs
          la=3 lb=1:     10 shell pairs
          la=3 lb=2:      5 shell pairs
          la=3 lb=3:      1 shell pairs

Calculating one electron integrals          ... done (  0.0 sec)
Calculating Nuclear repulsion               ... done (  0.0 sec) ENN=      0.000000000000 Eh

SHARK setup successfully completed in   0.7 seconds

Maximum memory used throughout the entire GTOINT-calculation: 15.9 MB


           ************************************************************
           *        Program running with 32 parallel MPI-processes    *
           *              working on a common directory               *
           ************************************************************
------------------------------------------------------------------------------
                          ORCA RELATIVISTIC HAMILTONIAN
------------------------------------------------------------------------------

Relativistic Method            ... ZORA(MP)
Treatment of potential         ... Van Wuellen
Nucleus model                  ... Point Nucleus
Speed of light used            ... 137.03599908400000


            *************************************************
            *         ZERO ORDER REGULAR APPROXIMATION      *
            *                     ZORA(MP)                  *
            *            Programmed by FN according to      *
            *                   C. van Wuellen              *
            *       J. Chem. Phys. (1998) vol 109, 392-399  *
            *************************************************

Terms included in model potential: +V(e,N)
Basis function cutoff value   ... 1.000000e-12
Loading the fitted atomic densities  (DKH4)  ... done
Calculating the cutoffs                      ... done
Number of fit functions                      ... 28
Setting up the integration grid ... done

Maximum memory used throughout the entire REL-calculation: 23.6 MB


           ************************************************************
           *        Program running with 32 parallel MPI-processes    *
           *              working on a common directory               *
           ************************************************************
-------------------------------------------------------------------------------
                                 ORCA SCF
-------------------------------------------------------------------------------

------------
SCF SETTINGS
------------
Hamiltonian:
 Density Functional     Method          .... DFT(GTOs)
 Exchange Functional    Exchange        .... PBE
   PBE kappa parameter   XKappa         ....  0.804000
   PBE mue parameter    XMuePBE         ....  0.219520
 Correlation Functional Correlation     .... PBE
   PBE beta parameter  CBetaPBE         ....  0.066725
 LDA part of GGA corr.  LDAOpt          .... PW91-LDA
 Gradients option       PostSCFGGA      .... off
   Density functional embedding theory  .... OFF
   NL short-range parameter             ....  6.400000

Relativistic Settings:
 Scalar relativistic method             .... ZORA
 Speed of light used       Velit        ....       137.035999
Orbital energies will be scaled


General Settings:
 Integral files         IntName         .... Sr_sarc-zora-tzvpp_pbe
 Hartree-Fock type      HFTyp           .... UHF
 Total Charge           Charge          ....    0
 Multiplicity           Mult            ....    1
 Number of Electrons    NEL             ....   38
 Basis Dimension        Dim             ....   77
 Nuclear Repulsion      ENuc            ....      0.0000000000 Eh

Convergence Acceleration:
 DIIS                   CNVDIIS         .... on
   Start iteration      DIISMaxIt       ....    12
   Startup error        DIISStart       ....  0.200000
   # of expansion vecs  DIISMaxEq       ....     5
   Bias factor          DIISBfac        ....   1.050
   Max. coefficient     DIISMaxC        ....  10.000
 Trust-Rad. Augm. Hess. CNVTRAH         .... off
 SOSCF                  CNVSOSCF        .... on
   Start iteration      SOSCFMaxIt      ....   150
   Startup grad/error   SOSCFStart      ....  0.003300
 Level Shifting         CNVShift        .... on
   Level shift para.    LevelShift      ....    0.2500
   Turn off err/grad.   ShiftErr        ....    0.0010
 Zerner damping         CNVZerner       .... off
 Static damping         CNVDamp         .... on
   Fraction old density DampFac         ....    0.7000
   Max. Damping (<1)    DampMax         ....    0.9800
   Min. Damping (>=0)   DampMin         ....    0.0000
   Turn off err/grad.   DampErr         ....    0.1000
 Fernandez-Rico         CNVRico         .... off

SCF Procedure:
 Maximum # iterations   MaxIter         ....   125
 SCF integral mode      SCFMode         .... Direct
   Integral package                     .... SHARK and LIBINT hybrid scheme
 Reset frequency        DirectResetFreq ....    20
 Integral Threshold     Thresh          ....  1.000e-12 Eh
 Primitive CutOff       TCut            ....  1.000e-14 Eh

Convergence Tolerance:
 Convergence Check Mode ConvCheckMode   .... Total+1el-Energy
 Convergence forced     ConvForced      .... 0
 Energy Change          TolE            ....  1.000e-09 Eh
 1-El. energy change                    ....  1.000e-06 Eh
 Orbital Gradient       TolG            ....  2.000e-06
 Orbital Rotation angle TolX            ....  2.000e-06
 DIIS Error             TolErr          ....  1.000e-08


Diagonalization of the overlap matrix:
Smallest eigenvalue                        ... 7.215e-04
Time for diagonalization                   ...    0.003 sec
Threshold for overlap eigenvalues          ... 1.000e-08
Number of eigenvalues below threshold      ... 0
Time for construction of square roots      ...    0.023 sec
Total time needed                          ...    0.027 sec

Time for model grid setup =    0.196 sec

------------------------------
INITIAL GUESS: MODEL POTENTIAL
------------------------------
Loading ZORA relativistic densities                ... done
Calculating cut-offs                               ... done
Initializing the effective Hamiltonian             ... done
Setting up the integral package (SHARK)            ... done
Starting the Coulomb interaction                   ... done (   0.2 sec)
Reading the grid                                   ... done
Mapping shells                                     ... done
Starting the XC term evaluation                    ... done (   0.0 sec)
  promolecular density results
     # of electrons  =     37.999981239
     EX              =   -104.940287150
     EC              =     -1.843632703
     EX+EC           =   -106.783919853
Transforming the Hamiltonian                       ... done (   0.0 sec)
Diagonalizing the Hamiltonian                      ... done (   0.0 sec)
Back transforming the eigenvectors                 ... done (   0.0 sec)
Now organizing SCF variables                       ... done
                      ------------------
                      INITIAL GUESS DONE (   0.4 sec)
                      ------------------
-------------------
DFT GRID GENERATION
-------------------

General Integration Accuracy     IntAcc      ... 4.959
Radial Grid Type                 RadialGrid  ... OptM3 with GC (2021)
Angular Grid (max. ang.)         AngularGrid ... 6 (Lebedev-590)
Angular grid pruning method      GridPruning ... 4 (adaptive)
Weight generation scheme         WeightScheme... Becke
Basis function cutoff            BFCut       ... 1.0000e-12
Integration weight cutoff        WCut        ... 1.0000e-14
Angular grids for H and He will be reduced by one unit
Partially contracted basis set               ... off
Rotationally invariant grid construction     ... off

Total number of grid points                  ...    65888
Total number of batches                      ...     1030
Average number of points per batch           ...       63
Average number of grid points per atom       ...    65888
Time for grid setup =    4.154 sec

--------------
SCF ITERATIONS
--------------
ITER       Energy         Delta-E        Max-DP      RMS-DP      [F,P]     Damp
               ***  Starting incremental Fock matrix formation  ***
  0  -3215.6419694046   0.000000000000 0.00417647  0.00015247  0.8954429 0.7000
  1  -3215.6437443977  -0.001774993107 0.00378265  0.00010362  0.6171319 0.7000
  2  -3215.6447371197  -0.000992722038 0.00405914  0.00008448  0.4257213 0.7000
                      *** Initiating the SOSCF procedure ***
                      *** Re-Reading the Fockian *** 
                      *** Removing any level shift *** 
ITER      Energy       Delta-E        Grad      Rot      Max-DP    RMS-DP
  3  -3215.64537534  -0.0006382173  0.001897  0.001897  0.012220  0.000237
               *** Restarting incremental Fock matrix formation ***
  4  -3215.64677448  -0.0013991400  0.004425  0.000229  0.001476  0.000050
  5  -3215.64678284  -0.0000083582  0.001695  0.000201  0.000547  0.000021
  6  -3215.64679189  -0.0000090535  0.000227  0.000183  0.000583  0.000012
  7  -3215.64679196  -0.0000000666  0.000069  0.000065  0.000203  0.000004
  8  -3215.64679198  -0.0000000202  0.000006  0.000002  0.000006  0.000000
  9  -3215.64679198  -0.0000000000  0.000001  0.000000  0.000001  0.000000
                 **** Energy Check signals convergence ****
              ***Rediagonalizing the Fockian in SOSCF/NRSCF***

               *****************************************************
               *                     SUCCESS                       *
               *           SCF CONVERGED AFTER  10 CYCLES          *
               *****************************************************


----------------
TOTAL SCF ENERGY
----------------

Total Energy       :        -3215.64679198 Eh          -87502.19774 eV

Components:
Nuclear Repulsion  :            0.00000000 Eh               0.00000 eV
Electronic Energy  :        -3215.64679198 Eh          -87502.19774 eV
One Electron Energy:        -4436.68628198 Eh         -120728.37144 eV
Two Electron Energy:         1221.03949001 Eh           33226.17371 eV

Virial components:
Potential Energy   :        -6514.15461354 Eh         -177259.15872 eV
Kinetic Energy     :         3298.50782156 Eh           89756.96098 eV
Virial Ratio       :            1.97487924


DFT components:
N(Alpha)           :       18.999999999975 electrons
N(Beta)            :       18.999999999975 electrons
N(Total)           :       37.999999999949 electrons
E(X)               :     -103.772314839236 Eh       
E(C)               :       -1.846274104793 Eh       
E(XC)              :     -105.618588944029 Eh       
DFET-embed. en.    :        0.000000000000 Eh       

---------------
SCF CONVERGENCE
---------------

  Last Energy change         ...    6.8212e-12  Tolerance :   1.0000e-09
  Last MAX-Density change    ...    2.3376e-07  Tolerance :   1.0000e-08
  Last RMS-Density change    ...    5.7877e-09  Tolerance :   1.0000e-09
  Last Orbital Gradient      ...    8.2391e-09  Tolerance :   2.0000e-06
  Last Orbital Rotation      ...    3.3733e-08  Tolerance :   2.0000e-06

             **** THE GBW FILE WAS UPDATED (Sr_sarc-zora-tzvpp_pbe.gbw) ****
             **** DENSITY Sr_sarc-zora-tzvpp_pbe.scfp WAS UPDATED ****
             **** ENERGY FILE WAS UPDATED (Sr_sarc-zora-tzvpp_pbe.en.tmp) ****
----------------------
UHF SPIN CONTAMINATION
----------------------

Warning: in a DFT calculation there is little theoretical justification to 
         calculate <S**2> as in Hartree-Fock theory. We will do it anyways
         but you should keep in mind that the values have only limited relevance

Expectation value of <S**2>     :    -0.000000
Ideal value S*(S+1) for S=0.0   :     0.000000
Deviation                       :    -0.000000

             **** THE GBW FILE WAS UPDATED (Sr_sarc-zora-tzvpp_pbe.gbw) ****
             **** DENSITY Sr_sarc-zora-tzvpp_pbe.scfp WAS UPDATED ****
----------------
ORBITAL ENERGIES
----------------
                 SPIN UP ORBITALS
  NO   OCC          E(Eh)            E(eV) 
   0   1.0000    -599.188213    -16304.7402 
   1   1.0000     -79.944088     -2175.3892 
   2   1.0000     -70.974997     -1931.3278 
   3   1.0000     -70.974997     -1931.3278 
   4   1.0000     -70.974997     -1931.3278 
   5   1.0000     -12.330474      -335.5292 
   6   1.0000      -9.451480      -257.1878 
   7   1.0000      -9.451480      -257.1878 
   8   1.0000      -9.451480      -257.1878 
   9   1.0000      -4.711106      -128.1957 
  10   1.0000      -4.711106      -128.1957 
  11   1.0000      -4.711106      -128.1957 
  12   1.0000      -4.711106      -128.1957 
  13   1.0000      -4.711106      -128.1957 
  14   1.0000      -1.507287       -41.0154 
  15   1.0000      -0.838845       -22.8261 
  16   1.0000      -0.838845       -22.8261 
  17   1.0000      -0.838845       -22.8261 
  18   1.0000      -0.128854        -3.5063 
  19   0.0000      -0.044782        -1.2186 
  20   0.0000      -0.044782        -1.2186 
  21   0.0000      -0.044782        -1.2186 
  22   0.0000      -0.039979        -1.0879 
  23   0.0000      -0.039979        -1.0879 
  24   0.0000      -0.039979        -1.0879 
  25   0.0000      -0.039979        -1.0879 
  26   0.0000      -0.039979        -1.0879 
  27   0.0000       0.066529         1.8103 
  28   0.0000       0.126353         3.4382 
  29   0.0000       0.126353         3.4382 
  30   0.0000       0.126353         3.4382 
  31   0.0000       0.224907         6.1200 
  32   0.0000       0.224907         6.1200 
  33   0.0000       0.224907         6.1200 
  34   0.0000       0.224907         6.1200 
  35   0.0000       0.224907         6.1200 
  36   0.0000       0.536693        14.6042 
  37   0.0000       0.736695        20.0465 
  38   0.0000       0.736695        20.0465 
  39   0.0000       0.736695        20.0465 
  40   0.0000       1.073368        29.2078 
  41   0.0000       1.073368        29.2078 
  42   0.0000       1.073368        29.2078 
  43   0.0000       1.073368        29.2078 
  44   0.0000       1.073368        29.2078 
  45   0.0000       1.073368        29.2078 
  46   0.0000       1.073368        29.2078 
  47   0.0000       1.202337        32.7173 
  48   0.0000       1.202337        32.7173 
  49   0.0000       1.202337        32.7173 
  50   0.0000       1.202337        32.7173 
  51   0.0000       1.202337        32.7173 
  52   0.0000       2.207357        60.0652 
  53   0.0000       3.242746        88.2396 
  54   0.0000       3.242746        88.2396 
  55   0.0000       3.242746        88.2396 
  56   0.0000       5.115238       139.1927 
  57   0.0000       5.115238       139.1927 
  58   0.0000       5.115238       139.1927 
  59   0.0000       5.115238       139.1927 
  60   0.0000       5.115238       139.1927 
  61   0.0000       8.354407       227.3350 
  62   0.0000      14.244738       387.6190 
  63   0.0000      14.244738       387.6190 
  64   0.0000      14.244738       387.6190 
  65   0.0000      31.317132       852.1825 
  66   0.0000      61.222955      1665.9613 
  67   0.0000      61.222955      1665.9613 
  68   0.0000      61.222955      1665.9613 
  69   0.0000     112.961281      3073.8327 
  70   0.0000     267.468730      7278.1942 
  71   0.0000     267.468730      7278.1942 
  72   0.0000     267.468730      7278.1942 
  73   0.0000     375.015913     10204.7018 
  74   0.0000    1136.675650     30930.5169 
  75   0.0000    3212.867105     87426.5586 
  76   0.0000   11585.804145    315265.7586 

                 SPIN DOWN ORBITALS
  NO   OCC          E(Eh)            E(eV) 
   0   1.0000    -599.188213    -16304.7402 
   1   1.0000     -79.944088     -2175.3892 
   2   1.0000     -70.974997     -1931.3278 
   3   1.0000     -70.974997     -1931.3278 
   4   1.0000     -70.974997     -1931.3278 
   5   1.0000     -12.330474      -335.5292 
   6   1.0000      -9.451480      -257.1878 
   7   1.0000      -9.451480      -257.1878 
   8   1.0000      -9.451480      -257.1878 
   9   1.0000      -4.711106      -128.1957 
  10   1.0000      -4.711106      -128.1957 
  11   1.0000      -4.711106      -128.1957 
  12   1.0000      -4.711106      -128.1957 
  13   1.0000      -4.711106      -128.1957 
  14   1.0000      -1.507287       -41.0154 
  15   1.0000      -0.838845       -22.8261 
  16   1.0000      -0.838845       -22.8261 
  17   1.0000      -0.838845       -22.8261 
  18   1.0000      -0.128854        -3.5063 
  19   0.0000      -0.044782        -1.2186 
  20   0.0000      -0.044782        -1.2186 
  21   0.0000      -0.044782        -1.2186 
  22   0.0000      -0.039979        -1.0879 
  23   0.0000      -0.039979        -1.0879 
  24   0.0000      -0.039979        -1.0879 
  25   0.0000      -0.039979        -1.0879 
  26   0.0000      -0.039979        -1.0879 
  27   0.0000       0.066529         1.8103 
  28   0.0000       0.126353         3.4382 
  29   0.0000       0.126353         3.4382 
  30   0.0000       0.126353         3.4382 
  31   0.0000       0.224907         6.1200 
  32   0.0000       0.224907         6.1200 
  33   0.0000       0.224907         6.1200 
  34   0.0000       0.224907         6.1200 
  35   0.0000       0.224907         6.1200 
  36   0.0000       0.536693        14.6042 
  37   0.0000       0.736695        20.0465 
  38   0.0000       0.736695        20.0465 
  39   0.0000       0.736695        20.0465 
  40   0.0000       1.073368        29.2078 
  41   0.0000       1.073368        29.2078 
  42   0.0000       1.073368        29.2078 
  43   0.0000       1.073368        29.2078 
  44   0.0000       1.073368        29.2078 
  45   0.0000       1.073368        29.2078 
  46   0.0000       1.073368        29.2078 
  47   0.0000       1.202337        32.7173 
  48   0.0000       1.202337        32.7173 
  49   0.0000       1.202337        32.7173 
  50   0.0000       1.202337        32.7173 
  51   0.0000       1.202337        32.7173 
  52   0.0000       2.207357        60.0652 
  53   0.0000       3.242746        88.2396 
  54   0.0000       3.242746        88.2396 
  55   0.0000       3.242746        88.2396 
  56   0.0000       5.115238       139.1927 
  57   0.0000       5.115238       139.1927 
  58   0.0000       5.115238       139.1927 
  59   0.0000       5.115238       139.1927 
  60   0.0000       5.115238       139.1927 
  61   0.0000       8.354407       227.3350 
  62   0.0000      14.244738       387.6190 
  63   0.0000      14.244738       387.6190 
  64   0.0000      14.244738       387.6190 
  65   0.0000      31.317132       852.1825 
  66   0.0000      61.222955      1665.9613 
  67   0.0000      61.222955      1665.9613 
  68   0.0000      61.222955      1665.9613 
  69   0.0000     112.961281      3073.8327 
  70   0.0000     267.468730      7278.1942 
  71   0.0000     267.468730      7278.1942 
  72   0.0000     267.468730      7278.1942 
  73   0.0000     375.015913     10204.7018 
  74   0.0000    1136.675650     30930.5169 
  75   0.0000    3212.867105     87426.5586 
  76   0.0000   11585.804145    315265.7586 

                    ********************************
                    * MULLIKEN POPULATION ANALYSIS *
                    ********************************

--------------------------------------------
MULLIKEN ATOMIC CHARGES AND SPIN POPULATIONS
--------------------------------------------
   0 Sr:   -0.000000    0.000000
Sum of atomic charges         :   -0.0000000
Sum of atomic spin populations:    0.0000000

-----------------------------------------------------
MULLIKEN REDUCED ORBITAL CHARGES AND SPIN POPULATIONS
-----------------------------------------------------
CHARGE
  0 Srs       :    10.000000  s :    10.000000
      pz      :     6.000000  p :    18.000000
      px      :     6.000000
      py      :     6.000000
      dz2     :     2.000000  d :    10.000000
      dxz     :     2.000000
      dyz     :     2.000000
      dx2y2   :     2.000000
      dxy     :     2.000000
      f0      :     0.000000  f :     0.000000
      f+1     :     0.000000
      f-1     :     0.000000
      f+2     :     0.000000
      f-2     :     0.000000
      f+3     :     0.000000
      f-3     :     0.000000

SPIN
  0 Srs       :     0.000000  s :     0.000000
      pz      :     0.000000  p :     0.000000
      px      :     0.000000
      py      :     0.000000
      dz2     :     0.000000  d :     0.000000
      dxz     :     0.000000
      dyz     :     0.000000
      dx2y2   :     0.000000
      dxy     :     0.000000
      f0      :     0.000000  f :     0.000000
      f+1     :     0.000000
      f-1     :     0.000000
      f+2     :     0.000000
      f-2     :     0.000000
      f+3     :     0.000000
      f-3     :     0.000000


                     *******************************
                     * LOEWDIN POPULATION ANALYSIS *
                     *******************************

-------------------------------------------
LOEWDIN ATOMIC CHARGES AND SPIN POPULATIONS
-------------------------------------------
   0 Sr:   -0.000000    0.000000

----------------------------------------------------
LOEWDIN REDUCED ORBITAL CHARGES AND SPIN POPULATIONS
----------------------------------------------------
CHARGE
  0 Srs       :    10.000000  s :    10.000000
      pz      :     6.000000  p :    18.000000
      px      :     6.000000
      py      :     6.000000
      dz2     :     2.000000  d :    10.000000
      dxz     :     2.000000
      dyz     :     2.000000
      dx2y2   :     2.000000
      dxy     :     2.000000
      f0      :     0.000000  f :     0.000000
      f+1     :     0.000000
      f-1     :     0.000000
      f+2     :     0.000000
      f-2     :     0.000000
      f+3     :     0.000000
      f-3     :     0.000000

SPIN
  0 Srs       :     0.000000  s :     0.000000
      pz      :     0.000000  p :     0.000000
      px      :     0.000000
      py      :     0.000000
      dz2     :     0.000000  d :     0.000000
      dxz     :     0.000000
      dyz     :     0.000000
      dx2y2   :     0.000000
      dxy     :     0.000000
      f0      :     0.000000  f :     0.000000
      f+1     :     0.000000
      f-1     :     0.000000
      f+2     :     0.000000
      f-2     :     0.000000
      f+3     :     0.000000
      f-3     :     0.000000


                      *****************************
                      * MAYER POPULATION ANALYSIS *
                      *****************************

  NA   - Mulliken gross atomic population
  ZA   - Total nuclear charge
  QA   - Mulliken gross atomic charge
  VA   - Mayer's total valence
  BVA  - Mayer's bonded valence
  FA   - Mayer's free valence

  ATOM       NA         ZA         QA         VA         BVA        FA
  0 Sr    38.0000    38.0000    -0.0000    -0.0000     0.0000    -0.0000

  Mayer bond orders larger than 0.100000


-------
TIMINGS
-------

Total SCF time: 0 days 0 hours 0 min 10 sec 

Total time                  ....      10.283 sec
Sum of individual times     ....       9.814 sec  ( 95.4%)

Fock matrix formation       ....       5.004 sec  ( 48.7%)
  XC integration            ....       1.076 sec  ( 21.5% of F)
    Basis function eval.    ....       0.043 sec  (  4.0% of XC)
    Density eval.           ....       0.061 sec  (  5.7% of XC)
    XC-Functional eval.     ....       0.037 sec  (  3.4% of XC)
    XC-Potential eval.      ....       0.044 sec  (  4.1% of XC)
Diagonalization             ....       0.080 sec  (  0.8%)
Density matrix formation    ....       0.004 sec  (  0.0%)
Population analysis         ....       0.065 sec  (  0.6%)
Initial guess               ....       0.232 sec  (  2.3%)
Orbital Transformation      ....       0.000 sec  (  0.0%)
Orbital Orthonormalization  ....       0.000 sec  (  0.0%)
DIIS solution               ....       0.019 sec  (  0.2%)
SOSCF solution              ....       0.060 sec  (  0.6%)
Grid generation             ....       4.349 sec  ( 42.3%)

Maximum memory used throughout the entire SCF-calculation: 230.3 MB

-------------------------   --------------------
FINAL SINGLE POINT ENERGY     -3215.646791975482
-------------------------   --------------------


                            ***************************************
                            *     ORCA property calculations      *
                            ***************************************

                                    ---------------------
                                    Active property flags
                                    ---------------------
   (+) Dipole Moment


------------------------------------------------------------------------------
                       ORCA ELECTRIC PROPERTIES CALCULATION
------------------------------------------------------------------------------

Dipole Moment Calculation                       ... on
Quadrupole Moment Calculation                   ... off
Polarizability Calculation                      ... off
GBWName                                         ... Sr_sarc-zora-tzvpp_pbe.gbw
Electron density                                ... Sr_sarc-zora-tzvpp_pbe.scfp
The origin for moment calculation is the CENTER OF MASS  = ( 0.000000,  0.000000  0.000000)

-------------
DIPOLE MOMENT
-------------
                                X             Y             Z
Electronic contribution:      0.00000      -0.00000      -0.00000
Nuclear contribution   :      0.00000       0.00000       0.00000
                        -----------------------------------------
Total Dipole Moment    :      0.00000      -0.00000      -0.00000
                        -----------------------------------------
Magnitude (a.u.)       :      0.00000
Magnitude (Debye)      :      0.00000



--------------------
Rotational spectrum 
--------------------
 
Rotational constants in cm-1:     0.000000     0.000000     0.000000 
Rotational constants in MHz :     0.000000     0.000000     0.000000 

 Dipole components along the rotational axes: 
x,y,z [a.u.] :     0.000000    -0.000000    -0.000000 
x,y,z [Debye]:     0.000000    -0.000000    -0.000000 

 

Timings for individual modules:

Sum of individual times         ...       24.048 sec (=   0.401 min)
GTO integral calculation        ...        4.375 sec (=   0.073 min)  18.2 %
Relativistic integrals          ...        6.928 sec (=   0.115 min)  28.8 %
SCF iterations                  ...       12.745 sec (=   0.212 min)  53.0 %
                             ****ORCA TERMINATED NORMALLY****
TOTAL RUN TIME: 0 days 0 hours 0 minutes 28 seconds 977 msec
