
                                 *****************
                                 * O   R   C   A *
                                 *****************

                                            #,                                       
                                            ###                                      
                                            ####                                     
                                            #####                                    
                                            ######                                   
                                           ########,                                 
                                     ,,################,,,,,                         
                               ,,#################################,,                 
                          ,,##########################################,,             
                       ,#########################################, ''#####,          
                    ,#############################################,,   '####,        
                  ,##################################################,,,,####,       
                ,###########''''           ''''###############################       
              ,#####''   ,,,,##########,,,,          '''####'''          '####       
            ,##' ,,,,###########################,,,                        '##       
           ' ,,###''''                  '''############,,,                           
         ,,##''                                '''############,,,,        ,,,,,,###''
      ,#''                                            '''#######################'''  
     '                                                          ''''####''''         
             ,#######,   #######,   ,#######,      ##                                
            ,#'     '#,  ##    ##  ,#'     '#,    #''#        ######   ,####,        
            ##       ##  ##   ,#'  ##            #'  '#       #        #'  '#        
            ##       ##  #######   ##           ,######,      #####,   #    #        
            '#,     ,#'  ##    ##  '#,     ,#' ,#      #,         ##   #,  ,#        
             '#######'   ##     ##  '#######'  #'      '#     #####' # '####'        



                  #######################################################
                  #                        -***-                        #
                  #          Department of theory and spectroscopy      #
                  #    Directorship and core code : Frank Neese         #
                  #        Max Planck Institute fuer Kohlenforschung    #
                  #                Kaiser Wilhelm Platz 1               #
                  #                 D-45470 Muelheim/Ruhr               #
                  #                      Germany                        #
                  #                                                     #
                  #                  All rights reserved                #
                  #                        -***-                        #
                  #######################################################


                         Program Version 5.0.1 -  RELEASE  -


 With contributions from (in alphabetic order):
   Daniel Aravena         : Magnetic Suceptibility
   Michael Atanasov       : Ab Initio Ligand Field Theory (pilot matlab implementation)
   Alexander A. Auer      : GIAO ZORA, VPT2 properties, NMR spectrum
   Ute Becker             : Parallelization
   Giovanni Bistoni       : ED, misc. LED, open-shell LED, HFLD
   Martin Brehm           : Molecular dynamics
   Dmytro Bykov           : SCF Hessian
   Vijay G. Chilkuri      : MRCI spin determinant printing, contributions to CSF-ICE
   Dipayan Datta          : RHF DLPNO-CCSD density
   Achintya Kumar Dutta   : EOM-CC, STEOM-CC
   Dmitry Ganyushin       : Spin-Orbit,Spin-Spin,Magnetic field MRCI
   Miquel Garcia          : C-PCM and meta-GGA Hessian, CC/C-PCM, Gaussian charge scheme
   Yang Guo               : DLPNO-NEVPT2, F12-NEVPT2, CIM, IAO-localization
   Andreas Hansen         : Spin unrestricted coupled pair/coupled cluster methods
   Benjamin Helmich-Paris : MC-RPA, TRAH-SCF, COSX integrals
   Lee Huntington         : MR-EOM, pCC
   Robert Izsak           : Overlap fitted RIJCOSX, COSX-SCS-MP3, EOM
   Marcus Kettner         : VPT2
   Christian Kollmar      : KDIIS, OOCD, Brueckner-CCSD(T), CCSD density, CASPT2, CASPT2-K
   Simone Kossmann        : Meta GGA functionals, TD-DFT gradient, OOMP2, MP2 Hessian
   Martin Krupicka        : Initial AUTO-CI
   Lucas Lang             : DCDCAS
   Marvin Lechner         : AUTO-CI (C++ implementation), FIC-MRCC
   Dagmar Lenk            : GEPOL surface, SMD
   Dimitrios Liakos       : Extrapolation schemes; Compound Job, initial MDCI parallelization
   Dimitrios Manganas     : Further ROCIS development; embedding schemes
   Dimitrios Pantazis     : SARC Basis sets
   Anastasios Papadopoulos: AUTO-CI, single reference methods and gradients
   Taras Petrenko         : DFT Hessian,TD-DFT gradient, ASA, ECA, R-Raman, ABS, FL, XAS/XES, NRVS
   Peter Pinski           : DLPNO-MP2, DLPNO-MP2 Gradient
   Christoph Reimann      : Effective Core Potentials
   Marius Retegan         : Local ZFS, SOC
   Christoph Riplinger    : Optimizer, TS searches, QM/MM, DLPNO-CCSD(T), (RO)-DLPNO pert. Triples
   Tobias Risthaus        : Range-separated hybrids, TD-DFT gradient, RPA, STAB
   Michael Roemelt        : Original ROCIS implementation
   Masaaki Saitow         : Open-shell DLPNO-CCSD energy and density
   Barbara Sandhoefer     : DKH picture change effects
   Avijit Sen             : IP-ROCIS
   Kantharuban Sivalingam : CASSCF convergence, NEVPT2, FIC-MRCI
   Bernardo de Souza      : ESD, SOC TD-DFT
   Georgi Stoychev        : AutoAux, RI-MP2 NMR, DLPNO-MP2 response
   Willem Van den Heuvel  : Paramagnetic NMR
   Boris Wezisla          : Elementary symmetry handling
   Frank Wennmohs         : Technical directorship


 We gratefully acknowledge several colleagues who have allowed us to
 interface, adapt or use parts of their codes:
   Stefan Grimme, W. Hujo, H. Kruse, P. Pracht,  : VdW corrections, initial TS optimization,
                  C. Bannwarth, S. Ehlert          DFT functionals, gCP, sTDA/sTD-DF
   Ed Valeev, F. Pavosevic, A. Kumar             : LibInt (2-el integral package), F12 methods
   Garnet Chan, S. Sharma, J. Yang, R. Olivares  : DMRG
   Ulf Ekstrom                                   : XCFun DFT Library
   Mihaly Kallay                                 : mrcc  (arbitrary order and MRCC methods)
   Jiri Pittner, Ondrej Demel                    : Mk-CCSD
   Frank Weinhold                                : gennbo (NPA and NBO analysis)
   Christopher J. Cramer and Donald G. Truhlar   : smd solvation model
   Lars Goerigk                                  : TD-DFT with DH, B97 family of functionals
   V. Asgeirsson, H. Jonsson                     : NEB implementation
   FAccTs GmbH                                   : IRC, NEB, NEB-TS, DLPNO-Multilevel, CI-OPT
                                                   MM, QMMM, 2- and 3-layer-ONIOM, Crystal-QMMM,
                                                   LR-CPCM, SF, NACMEs, symmetry and pop. for TD-DFT,
                                                   nearIR, NL-DFT gradient (VV10), updates on ESD,
                                                   ML-optimized integration grids
   S Lehtola, MJT Oliveira, MAL Marques          : LibXC Library
   Liviu Ungur et al                             : ANISO software


 Your calculation uses the libint2 library for the computation of 2-el integrals
 For citations please refer to: http://libint.valeyev.net

 Your ORCA version has been built with support for libXC version: 5.1.0
 For citations please refer to: https://tddft.org/programs/libxc/

 This ORCA versions uses:
   CBLAS   interface :  Fast vector & matrix operations
   LAPACKE interface :  Fast linear algebra routines
   SCALAPACK package :  Parallel linear algebra routines
   Shared memory     :  Shared parallel matrices
   BLAS/LAPACK       :  OpenBLAS 0.3.15  USE64BITINT DYNAMIC_ARCH NO_AFFINITY Haswell SINGLE_THREADED
        Core in use  :  Haswell
   Copyright (c) 2011-2014, The OpenBLAS Project


SCAN-COORDS

Reading of a custom basis requested
Basis file         : Sr_ugbs.basis
READING GTO-BASIS: STRONTIUM
Basis successfully read

================================================================================

----- Orbital basis set information -----
================================================================================
                                        WARNINGS
                       Please study these warnings very carefully!
================================================================================


INFO   : the flag for use of the SHARK integral package has been found!

================================================================================
                                       INPUT FILE
================================================================================
NAME = Sr_ugbs_pbe.inp
|  1> !uks pbe nori verytightscf soscf notrah defgrid3
|  2> 
|  3> %pal
|  4>   nprocs 32
|  5> end
|  6> %coords
|  7>   charge 0
|  8>   mult 1
|  9>   units bohrs
| 10>   coords
| 11>     Sr 0.0 0.0 0.0
| 12>   end
| 13> end
| 14> %basis
| 15>   gtoname "Sr_ugbs.basis"
| 16>   delECP Sr
| 17> end
| 18> %rel
| 19>   method zora
| 20>   modelpot 1, 0, 0, 0
| 21>   c 137.035999084
| 22> endd                         ****END OF INPUT****
================================================================================

                       ****************************
                       * Single Point Calculation *
                       ****************************

---------------------------------
CARTESIAN COORDINATES (ANGSTROEM)
---------------------------------
  Sr     0.000000    0.000000    0.000000

----------------------------
CARTESIAN COORDINATES (A.U.)
----------------------------
  NO LB      ZA    FRAG     MASS         X           Y           Z
   0 Sr   38.0000    0    87.620    0.000000    0.000000    0.000000

--------------------------------
INTERNAL COORDINATES (ANGSTROEM)
--------------------------------
 Sr     0   0   0     0.000000000000     0.00000000     0.00000000

---------------------------
INTERNAL COORDINATES (A.U.)
---------------------------
 Sr     0   0   0     0.000000000000     0.00000000     0.00000000

---------------------
BASIS SET INFORMATION
---------------------
There are 1 groups of distinct atoms

 Group   1 Type Sr  : 30s21p14d contracted to 30s21p14d pattern {111111111111111111111111111111/111111111111111111111/11111111111111}

Atom   0Sr   basis set group =>   1


           ************************************************************
           *        Program running with 32 parallel MPI-processes    *
           *              working on a common directory               *
           ************************************************************
------------------------------------------------------------------------------
                           ORCA GTO INTEGRAL CALCULATION
------------------------------------------------------------------------------
------------------------------------------------------------------------------
                   ___                                                        
                  /   \      - P O W E R E D   B Y -                         
                 /     \                                                     
                 |  |  |   _    _      __       _____    __    __             
                 |  |  |  | |  | |    /  \     |  _  \  |  |  /  |          
                  \  \/   | |  | |   /    \    | | | |  |  | /  /          
                 / \  \   | |__| |  /  /\  \   | |_| |  |  |/  /          
                |  |  |   |  __  | /  /__\  \  |    /   |      \           
                |  |  |   | |  | | |   __   |  |    \   |  |\   \          
                \     /   | |  | | |  |  |  |  | |\  \  |  | \   \       
                 \___/    |_|  |_| |__|  |__|  |_| \__\ |__|  \__/        
                                                                              
                      - O R C A' S   B I G   F R I E N D -                    
                                      &                                       
                       - I N T E G R A L  F E E D E R -                       
                                                                              
 v1 FN, 2020, v2 2021                                                         
------------------------------------------------------------------------------


Reading SHARK input file Sr_ugbs_pbe.SHARKINP.tmp ... ok
----------------------
SHARK INTEGRAL PACKAGE
----------------------

Number of atoms                             ...      1
Number of basis functions                   ...    163
Number of shells                            ...     65
Maximum angular momentum                    ...      2
Integral batch strategy                     ... SHARK/LIBINT Hybrid
RI-J (if used) integral strategy            ... SPLIT-RIJ (Revised 2003 algorithm where possible)
Printlevel                                  ...      1
Contraction scheme used                     ... SEGMENTED contraction
Coulomb Range Separation                    ... NOT USED
Exchange Range Separation                   ... NOT USED
Finite Nucleus Model                        ... NOT USED
Auxiliary Coulomb fitting basis             ... NOT available
Auxiliary J/K fitting basis                 ... NOT available
Auxiliary Correlation fitting basis         ... NOT available
Auxiliary 'external' fitting basis          ... NOT available
Integral threshold                          ...     1.000000e-12
Primitive cut-off                           ...     1.000000e-14
Primitive pair pre-selection threshold      ...     1.000000e-14

Calculating pre-screening integrals         ... done (  0.5 sec) Dimension = 65
Organizing shell pair data                  ... done (  0.1 sec)
Shell pair information
Total number of shell pairs                 ...      2145
Shell pairs after pre-screening             ...      2145
Total number of primitive shell pairs       ...      2145
Primitive shell pairs kept                  ...      2145
          la=0 lb=0:    465 shell pairs
          la=1 lb=0:    630 shell pairs
          la=1 lb=1:    231 shell pairs
          la=2 lb=0:    420 shell pairs
          la=2 lb=1:    294 shell pairs
          la=2 lb=2:    105 shell pairs

Calculating one electron integrals          ... done (  0.1 sec)
Calculating Nuclear repulsion               ... done (  0.0 sec) ENN=      0.000000000000 Eh

SHARK setup successfully completed in   1.1 seconds

Maximum memory used throughout the entire GTOINT-calculation: 6.0 MB


           ************************************************************
           *        Program running with 32 parallel MPI-processes    *
           *              working on a common directory               *
           ************************************************************
------------------------------------------------------------------------------
                          ORCA RELATIVISTIC HAMILTONIAN
------------------------------------------------------------------------------

Relativistic Method            ... ZORA(MP)
Treatment of potential         ... Van Wuellen
Nucleus model                  ... Point Nucleus
Speed of light used            ... 137.03599908400000


            *************************************************
            *         ZERO ORDER REGULAR APPROXIMATION      *
            *                     ZORA(MP)                  *
            *            Programmed by FN according to      *
            *                   C. van Wuellen              *
            *       J. Chem. Phys. (1998) vol 109, 392-399  *
            *************************************************

Terms included in model potential: +V(e,N)
Basis function cutoff value   ... 1.000000e-12
Loading the fitted atomic densities  (DKH4)  ... done
Calculating the cutoffs                      ... done
Number of fit functions                      ... 28
Setting up the integration grid ... done

Maximum memory used throughout the entire REL-calculation: 23.8 MB


           ************************************************************
           *        Program running with 32 parallel MPI-processes    *
           *              working on a common directory               *
           ************************************************************
-------------------------------------------------------------------------------
                                 ORCA SCF
-------------------------------------------------------------------------------

------------
SCF SETTINGS
------------
Hamiltonian:
 Density Functional     Method          .... DFT(GTOs)
 Exchange Functional    Exchange        .... PBE
   PBE kappa parameter   XKappa         ....  0.804000
   PBE mue parameter    XMuePBE         ....  0.219520
 Correlation Functional Correlation     .... PBE
   PBE beta parameter  CBetaPBE         ....  0.066725
 LDA part of GGA corr.  LDAOpt          .... PW91-LDA
 Gradients option       PostSCFGGA      .... off
   Density functional embedding theory  .... OFF
   NL short-range parameter             ....  6.400000

Relativistic Settings:
 Scalar relativistic method             .... ZORA
 Speed of light used       Velit        ....       137.035999
Orbital energies will be scaled


General Settings:
 Integral files         IntName         .... Sr_ugbs_pbe
 Hartree-Fock type      HFTyp           .... UHF
 Total Charge           Charge          ....    0
 Multiplicity           Mult            ....    1
 Number of Electrons    NEL             ....   38
 Basis Dimension        Dim             ....  163
 Nuclear Repulsion      ENuc            ....      0.0000000000 Eh

Convergence Acceleration:
 DIIS                   CNVDIIS         .... on
   Start iteration      DIISMaxIt       ....    12
   Startup error        DIISStart       ....  0.200000
   # of expansion vecs  DIISMaxEq       ....     5
   Bias factor          DIISBfac        ....   1.050
   Max. coefficient     DIISMaxC        ....  10.000
 Trust-Rad. Augm. Hess. CNVTRAH         .... off
 SOSCF                  CNVSOSCF        .... on
   Start iteration      SOSCFMaxIt      ....   150
   Startup grad/error   SOSCFStart      ....  0.003300
 Level Shifting         CNVShift        .... on
   Level shift para.    LevelShift      ....    0.2500
   Turn off err/grad.   ShiftErr        ....    0.0010
 Zerner damping         CNVZerner       .... off
 Static damping         CNVDamp         .... on
   Fraction old density DampFac         ....    0.7000
   Max. Damping (<1)    DampMax         ....    0.9800
   Min. Damping (>=0)   DampMin         ....    0.0000
   Turn off err/grad.   DampErr         ....    0.1000
 Fernandez-Rico         CNVRico         .... off

SCF Procedure:
 Maximum # iterations   MaxIter         ....   125
 SCF integral mode      SCFMode         .... Direct
   Integral package                     .... SHARK and LIBINT hybrid scheme
 Reset frequency        DirectResetFreq ....    20
 Integral Threshold     Thresh          ....  1.000e-12 Eh
 Primitive CutOff       TCut            ....  1.000e-14 Eh

Convergence Tolerance:
 Convergence Check Mode ConvCheckMode   .... Total+1el-Energy
 Convergence forced     ConvForced      .... 0
 Energy Change          TolE            ....  1.000e-09 Eh
 1-El. energy change                    ....  1.000e-06 Eh
 Orbital Gradient       TolG            ....  2.000e-06
 Orbital Rotation angle TolX            ....  2.000e-06
 DIIS Error             TolErr          ....  1.000e-08


Diagonalization of the overlap matrix:
Smallest eigenvalue                        ... 6.125e-05
Time for diagonalization                   ...    0.013 sec
Threshold for overlap eigenvalues          ... 1.000e-08
Number of eigenvalues below threshold      ... 0
Time for construction of square roots      ...    0.040 sec
Total time needed                          ...    0.055 sec

Time for model grid setup =    0.208 sec

------------------------------
INITIAL GUESS: MODEL POTENTIAL
------------------------------
Loading ZORA relativistic densities                ... done
Calculating cut-offs                               ... done
Initializing the effective Hamiltonian             ... done
Setting up the integral package (SHARK)            ... done
Starting the Coulomb interaction                   ... done (   0.2 sec)
Reading the grid                                   ... done
Mapping shells                                     ... done
Starting the XC term evaluation                    ... done (   0.1 sec)
  promolecular density results
     # of electrons  =     37.999999965
     EX              =   -104.940287177
     EC              =     -1.843632703
     EX+EC           =   -106.783919880
Transforming the Hamiltonian                       ... done (   0.0 sec)
Diagonalizing the Hamiltonian                      ... done (   0.0 sec)
Back transforming the eigenvectors                 ... done (   0.0 sec)
Now organizing SCF variables                       ... done
                      ------------------
                      INITIAL GUESS DONE (   0.6 sec)
                      ------------------
-------------------
DFT GRID GENERATION
-------------------

General Integration Accuracy     IntAcc      ... 4.959
Radial Grid Type                 RadialGrid  ... OptM3 with GC (2021)
Angular Grid (max. ang.)         AngularGrid ... 6 (Lebedev-590)
Angular grid pruning method      GridPruning ... 4 (adaptive)
Weight generation scheme         WeightScheme... Becke
Basis function cutoff            BFCut       ... 1.0000e-12
Integration weight cutoff        WCut        ... 1.0000e-14
Angular grids for H and He will be reduced by one unit
Partially contracted basis set               ... off
Rotationally invariant grid construction     ... off

Total number of grid points                  ...    65888
Total number of batches                      ...     1030
Average number of points per batch           ...       63
Average number of grid points per atom       ...    65888
Time for grid setup =    4.265 sec

--------------
SCF ITERATIONS
--------------
ITER       Energy         Delta-E        Max-DP      RMS-DP      [F,P]     Damp
               ***  Starting incremental Fock matrix formation  ***
  0  -3215.7718239262   0.000000000000 0.00447456  0.00005838  0.9304868 0.7000
  1  -3215.7729892487  -0.001165322410 0.00342150  0.00004498  0.6421552 0.7000
                      *** Initiating the SOSCF procedure ***
                      *** Re-Reading the Fockian *** 
                      *** Removing any level shift *** 
ITER      Energy       Delta-E        Grad      Rot      Max-DP    RMS-DP
  2  -3215.77367121  -0.0006819660  0.002506  0.002506  0.008257  0.000121
               *** Restarting incremental Fock matrix formation ***
  3  -3215.77507815  -0.0014069376  0.004902  0.001625  0.006845  0.000071
  4  -3215.77509070  -0.0000125512  0.002529  0.000443  0.000722  0.000014
  5  -3215.77511810  -0.0000273998  0.000251  0.000156  0.000282  0.000004
  6  -3215.77511819  -0.0000000863  0.000065  0.000063  0.000113  0.000001
  7  -3215.77511821  -0.0000000250  0.000008  0.000004  0.000007  0.000000
  8  -3215.77511821  -0.0000000000  0.000001  0.000001  0.000001  0.000000
                 **** Energy Check signals convergence ****
              ***Rediagonalizing the Fockian in SOSCF/NRSCF***

               *****************************************************
               *                     SUCCESS                       *
               *           SCF CONVERGED AFTER   9 CYCLES          *
               *****************************************************


----------------
TOTAL SCF ENERGY
----------------

Total Energy       :        -3215.77511821 Eh          -87505.68967 eV

Components:
Nuclear Repulsion  :            0.00000000 Eh               0.00000 eV
Electronic Energy  :        -3215.77511821 Eh          -87505.68967 eV
One Electron Energy:        -4437.55849304 Eh         -120752.10551 eV
Two Electron Energy:         1221.78337483 Eh           33246.41584 eV

Virial components:
Potential Energy   :        -6516.21212045 Eh         -177315.14633 eV
Kinetic Energy     :         3300.43700224 Eh           89809.45666 eV
Virial Ratio       :            1.97434828


DFT components:
N(Alpha)           :       18.999999999941 electrons
N(Beta)            :       18.999999999941 electrons
N(Total)           :       37.999999999883 electrons
E(X)               :     -103.817728765951 Eh       
E(C)               :       -1.845350077375 Eh       
E(XC)              :     -105.663078843326 Eh       
DFET-embed. en.    :        0.000000000000 Eh       

---------------
SCF CONVERGENCE
---------------

  Last Energy change         ...   -7.7307e-12  Tolerance :   1.0000e-09
  Last MAX-Density change    ...    7.1180e-08  Tolerance :   1.0000e-08
  Last RMS-Density change    ...    1.1048e-09  Tolerance :   1.0000e-09
  Last Orbital Gradient      ...    1.2824e-08  Tolerance :   2.0000e-06
  Last Orbital Rotation      ...    1.4414e-08  Tolerance :   2.0000e-06

             **** THE GBW FILE WAS UPDATED (Sr_ugbs_pbe.gbw) ****
             **** DENSITY Sr_ugbs_pbe.scfp WAS UPDATED ****
             **** ENERGY FILE WAS UPDATED (Sr_ugbs_pbe.en.tmp) ****
----------------------
UHF SPIN CONTAMINATION
----------------------

Warning: in a DFT calculation there is little theoretical justification to 
         calculate <S**2> as in Hartree-Fock theory. We will do it anyways
         but you should keep in mind that the values have only limited relevance

Expectation value of <S**2>     :     0.000000
Ideal value S*(S+1) for S=0.0   :     0.000000
Deviation                       :     0.000000

             **** THE GBW FILE WAS UPDATED (Sr_ugbs_pbe.gbw) ****
             **** DENSITY Sr_ugbs_pbe.scfp WAS UPDATED ****
----------------
ORBITAL ENERGIES
----------------
                 SPIN UP ORBITALS
  NO   OCC          E(Eh)            E(eV) 
   0   1.0000    -599.141948    -16303.4813 
   1   1.0000     -79.891876     -2173.9685 
   2   1.0000     -70.917690     -1929.7685 
   3   1.0000     -70.917690     -1929.7685 
   4   1.0000     -70.917690     -1929.7685 
   5   1.0000     -12.322887      -335.3228 
   6   1.0000      -9.445108      -257.0144 
   7   1.0000      -9.445108      -257.0144 
   8   1.0000      -9.445108      -257.0144 
   9   1.0000      -4.705263      -128.0367 
  10   1.0000      -4.705263      -128.0367 
  11   1.0000      -4.705263      -128.0367 
  12   1.0000      -4.705263      -128.0367 
  13   1.0000      -4.705263      -128.0367 
  14   1.0000      -1.508063       -41.0365 
  15   1.0000      -0.839720       -22.8499 
  16   1.0000      -0.839720       -22.8499 
  17   1.0000      -0.839720       -22.8499 
  18   1.0000      -0.129802        -3.5321 
  19   0.0000      -0.023271        -0.6332 
  20   0.0000      -0.023271        -0.6332 
  21   0.0000      -0.023271        -0.6332 
  22   0.0000       0.010357         0.2818 
  23   0.0000       0.027450         0.7470 
  24   0.0000       0.027450         0.7470 
  25   0.0000       0.027450         0.7470 
  26   0.0000       0.027450         0.7470 
  27   0.0000       0.027450         0.7470 
  28   0.0000       0.158028         4.3002 
  29   0.0000       0.359673         9.7872 
  30   0.0000       0.359673         9.7872 
  31   0.0000       0.359673         9.7872 
  32   0.0000       0.546437        14.8693 
  33   0.0000       0.971579        26.4380 
  34   0.0000       0.971579        26.4380 
  35   0.0000       0.971579        26.4380 
  36   0.0000       0.971579        26.4380 
  37   0.0000       0.971579        26.4380 
  38   0.0000       1.316841        35.8331 
  39   0.0000       1.316841        35.8331 
  40   0.0000       1.316841        35.8331 
  41   0.0000       1.571121        42.7524 
  42   0.0000       3.274061        89.0917 
  43   0.0000       3.274061        89.0917 
  44   0.0000       3.274061        89.0917 
  45   0.0000       3.274061        89.0917 
  46   0.0000       3.274061        89.0917 
  47   0.0000       3.689216       100.3887 
  48   0.0000       3.689216       100.3887 
  49   0.0000       3.689216       100.3887 
  50   0.0000       4.248504       115.6077 
  51   0.0000       8.441114       229.6944 
  52   0.0000       8.441114       229.6944 
  53   0.0000       8.441114       229.6944 
  54   0.0000       8.441114       229.6944 
  55   0.0000       8.441114       229.6944 
  56   0.0000       9.642757       262.3928 
  57   0.0000       9.642757       262.3928 
  58   0.0000       9.642757       262.3928 
  59   0.0000      11.398054       310.1568 
  60   0.0000      19.958119       543.0880 
  61   0.0000      19.958119       543.0880 
  62   0.0000      19.958119       543.0880 
  63   0.0000      19.958119       543.0880 
  64   0.0000      19.958119       543.0880 
  65   0.0000      24.624734       670.0731 
  66   0.0000      24.624734       670.0731 
  67   0.0000      24.624734       670.0731 
  68   0.0000      30.493920       829.7817 
  69   0.0000      45.432459      1236.2801 
  70   0.0000      45.432459      1236.2801 
  71   0.0000      45.432459      1236.2801 
  72   0.0000      45.432459      1236.2801 
  73   0.0000      45.432459      1236.2801 
  74   0.0000      61.421608      1671.3669 
  75   0.0000      61.421608      1671.3669 
  76   0.0000      61.421608      1671.3669 
  77   0.0000      80.336850      2186.0768 
  78   0.0000     101.188177      2753.4703 
  79   0.0000     101.188177      2753.4703 
  80   0.0000     101.188177      2753.4703 
  81   0.0000     101.188177      2753.4703 
  82   0.0000     101.188177      2753.4703 
  83   0.0000     148.432064      4039.0418 
  84   0.0000     148.432064      4039.0418 
  85   0.0000     148.432064      4039.0418 
  86   0.0000     205.496439      5591.8424 
  87   0.0000     221.795939      6035.3743 
  88   0.0000     221.795939      6035.3743 
  89   0.0000     221.795939      6035.3743 
  90   0.0000     221.795939      6035.3743 
  91   0.0000     221.795939      6035.3743 
  92   0.0000     344.943212      9386.3820 
  93   0.0000     344.943212      9386.3820 
  94   0.0000     344.943212      9386.3820 
  95   0.0000     478.035953     13008.0196 
  96   0.0000     478.035953     13008.0196 
  97   0.0000     478.035953     13008.0196 
  98   0.0000     478.035953     13008.0196 
  99   0.0000     478.035953     13008.0196 
 100   0.0000     503.538189     13701.9707 
 101   0.0000     770.206332     20958.3798 
 102   0.0000     770.206332     20958.3798 
 103   0.0000     770.206332     20958.3798 
 104   0.0000    1014.707483     27611.5944 
 105   0.0000    1014.707483     27611.5944 
 106   0.0000    1014.707483     27611.5944 
 107   0.0000    1014.707483     27611.5944 
 108   0.0000    1014.707483     27611.5944 
 109   0.0000    1174.290975     31954.0819 
 110   0.0000    1661.716506     45217.6050 
 111   0.0000    1661.716506     45217.6050 
 112   0.0000    1661.716506     45217.6050 
 113   0.0000    2126.142772     57855.2861 
 114   0.0000    2126.142772     57855.2861 
 115   0.0000    2126.142772     57855.2861 
 116   0.0000    2126.142772     57855.2861 
 117   0.0000    2126.142772     57855.2861 
 118   0.0000    2611.828494     71071.4665 
 119   0.0000    3485.922947     94856.7858 
 120   0.0000    3485.922947     94856.7858 
 121   0.0000    3485.922947     94856.7858 
 122   0.0000    4466.022938    121526.6624 
 123   0.0000    4466.022938    121526.6624 
 124   0.0000    4466.022938    121526.6624 
 125   0.0000    4466.022938    121526.6624 
 126   0.0000    4466.022938    121526.6624 
 127   0.0000    5582.201190    151899.4168 
 128   0.0000    7154.310932    194678.6977 
 129   0.0000    7154.310932    194678.6977 
 130   0.0000    7154.310932    194678.6977 
 131   0.0000    9505.223057    258650.2689 
 132   0.0000    9505.223057    258650.2689 
 133   0.0000    9505.223057    258650.2689 
 134   0.0000    9505.223057    258650.2689 
 135   0.0000    9505.223057    258650.2689 
 136   0.0000   11561.253303    314597.6962 
 137   0.0000   14420.195870    392393.4785 
 138   0.0000   14420.195870    392393.4785 
 139   0.0000   14420.195870    392393.4785 
 140   0.0000   23354.303816    635502.9152 
 141   0.0000   28722.544641    781580.1744 
 142   0.0000   28722.544641    781580.1744 
 143   0.0000   28722.544641    781580.1744 
 144   0.0000   46206.760107   1257349.8649 
 145   0.0000   56484.976069   1537034.3402 
 146   0.0000   56484.976069   1537034.3402 
 147   0.0000   56484.976069   1537034.3402 
 148   0.0000   89709.355820   2441115.6758 
 149   0.0000   112226.276052   3053832.2252 
 150   0.0000   112226.276052   3053832.2252 
 151   0.0000   112226.276052   3053832.2252 
 152   0.0000   171001.539164   4653188.4442 
 153   0.0000   219259.189369   5966345.8659 
 154   0.0000   219259.189369   5966345.8659 
 155   0.0000   219259.189369   5966345.8659 
 156   0.0000   319605.432529   8696905.9613 
 157   0.0000   585305.768655   15926979.6771 
 158   0.0000   1046115.000674   28466236.3638 
 159   0.0000   1834279.923604   49913294.2641 
 160   0.0000   3111248.521759   84661376.3783 
 161   0.0000   5397612.456463   146876501.9974 
 162   0.0000   8729464.271887   237540799.1789 

                 SPIN DOWN ORBITALS
  NO   OCC          E(Eh)            E(eV) 
   0   1.0000    -599.141948    -16303.4813 
   1   1.0000     -79.891876     -2173.9685 
   2   1.0000     -70.917690     -1929.7685 
   3   1.0000     -70.917690     -1929.7685 
   4   1.0000     -70.917690     -1929.7685 
   5   1.0000     -12.322887      -335.3228 
   6   1.0000      -9.445108      -257.0144 
   7   1.0000      -9.445108      -257.0144 
   8   1.0000      -9.445108      -257.0144 
   9   1.0000      -4.705263      -128.0367 
  10   1.0000      -4.705263      -128.0367 
  11   1.0000      -4.705263      -128.0367 
  12   1.0000      -4.705263      -128.0367 
  13   1.0000      -4.705263      -128.0367 
  14   1.0000      -1.508063       -41.0365 
  15   1.0000      -0.839720       -22.8499 
  16   1.0000      -0.839720       -22.8499 
  17   1.0000      -0.839720       -22.8499 
  18   1.0000      -0.129802        -3.5321 
  19   0.0000      -0.023271        -0.6332 
  20   0.0000      -0.023271        -0.6332 
  21   0.0000      -0.023271        -0.6332 
  22   0.0000       0.010357         0.2818 
  23   0.0000       0.027450         0.7470 
  24   0.0000       0.027450         0.7470 
  25   0.0000       0.027450         0.7470 
  26   0.0000       0.027450         0.7470 
  27   0.0000       0.027450         0.7470 
  28   0.0000       0.158028         4.3002 
  29   0.0000       0.359673         9.7872 
  30   0.0000       0.359673         9.7872 
  31   0.0000       0.359673         9.7872 
  32   0.0000       0.546437        14.8693 
  33   0.0000       0.971579        26.4380 
  34   0.0000       0.971579        26.4380 
  35   0.0000       0.971579        26.4380 
  36   0.0000       0.971579        26.4380 
  37   0.0000       0.971579        26.4380 
  38   0.0000       1.316841        35.8331 
  39   0.0000       1.316841        35.8331 
  40   0.0000       1.316841        35.8331 
  41   0.0000       1.571121        42.7524 
  42   0.0000       3.274061        89.0917 
  43   0.0000       3.274061        89.0917 
  44   0.0000       3.274061        89.0917 
  45   0.0000       3.274061        89.0917 
  46   0.0000       3.274061        89.0917 
  47   0.0000       3.689216       100.3887 
  48   0.0000       3.689216       100.3887 
  49   0.0000       3.689216       100.3887 
  50   0.0000       4.248504       115.6077 
  51   0.0000       8.441114       229.6944 
  52   0.0000       8.441114       229.6944 
  53   0.0000       8.441114       229.6944 
  54   0.0000       8.441114       229.6944 
  55   0.0000       8.441114       229.6944 
  56   0.0000       9.642757       262.3928 
  57   0.0000       9.642757       262.3928 
  58   0.0000       9.642757       262.3928 
  59   0.0000      11.398054       310.1568 
  60   0.0000      19.958119       543.0880 
  61   0.0000      19.958119       543.0880 
  62   0.0000      19.958119       543.0880 
  63   0.0000      19.958119       543.0880 
  64   0.0000      19.958119       543.0880 
  65   0.0000      24.624734       670.0731 
  66   0.0000      24.624734       670.0731 
  67   0.0000      24.624734       670.0731 
  68   0.0000      30.493920       829.7817 
  69   0.0000      45.432459      1236.2801 
  70   0.0000      45.432459      1236.2801 
  71   0.0000      45.432459      1236.2801 
  72   0.0000      45.432459      1236.2801 
  73   0.0000      45.432459      1236.2801 
  74   0.0000      61.421608      1671.3669 
  75   0.0000      61.421608      1671.3669 
  76   0.0000      61.421608      1671.3669 
  77   0.0000      80.336850      2186.0768 
  78   0.0000     101.188177      2753.4703 
  79   0.0000     101.188177      2753.4703 
  80   0.0000     101.188177      2753.4703 
  81   0.0000     101.188177      2753.4703 
  82   0.0000     101.188177      2753.4703 
  83   0.0000     148.432064      4039.0418 
  84   0.0000     148.432064      4039.0418 
  85   0.0000     148.432064      4039.0418 
  86   0.0000     205.496439      5591.8424 
  87   0.0000     221.795939      6035.3743 
  88   0.0000     221.795939      6035.3743 
  89   0.0000     221.795939      6035.3743 
  90   0.0000     221.795939      6035.3743 
  91   0.0000     221.795939      6035.3743 
  92   0.0000     344.943212      9386.3820 
  93   0.0000     344.943212      9386.3820 
  94   0.0000     344.943212      9386.3820 
  95   0.0000     478.035953     13008.0196 
  96   0.0000     478.035953     13008.0196 
  97   0.0000     478.035953     13008.0196 
  98   0.0000     478.035953     13008.0196 
  99   0.0000     478.035953     13008.0196 
 100   0.0000     503.538189     13701.9707 
 101   0.0000     770.206332     20958.3798 
 102   0.0000     770.206332     20958.3798 
 103   0.0000     770.206332     20958.3798 
 104   0.0000    1014.707483     27611.5944 
 105   0.0000    1014.707483     27611.5944 
 106   0.0000    1014.707483     27611.5944 
 107   0.0000    1014.707483     27611.5944 
 108   0.0000    1014.707483     27611.5944 
 109   0.0000    1174.290975     31954.0819 
 110   0.0000    1661.716506     45217.6050 
 111   0.0000    1661.716506     45217.6050 
 112   0.0000    1661.716506     45217.6050 
 113   0.0000    2126.142772     57855.2861 
 114   0.0000    2126.142772     57855.2861 
 115   0.0000    2126.142772     57855.2861 
 116   0.0000    2126.142772     57855.2861 
 117   0.0000    2126.142772     57855.2861 
 118   0.0000    2611.828494     71071.4665 
 119   0.0000    3485.922947     94856.7858 
 120   0.0000    3485.922947     94856.7858 
 121   0.0000    3485.922947     94856.7858 
 122   0.0000    4466.022938    121526.6624 
 123   0.0000    4466.022938    121526.6624 
 124   0.0000    4466.022938    121526.6624 
 125   0.0000    4466.022938    121526.6624 
 126   0.0000    4466.022938    121526.6624 
 127   0.0000    5582.201190    151899.4168 
 128   0.0000    7154.310932    194678.6977 
 129   0.0000    7154.310932    194678.6977 
 130   0.0000    7154.310932    194678.6977 
 131   0.0000    9505.223057    258650.2689 
 132   0.0000    9505.223057    258650.2689 
 133   0.0000    9505.223057    258650.2689 
 134   0.0000    9505.223057    258650.2689 
 135   0.0000    9505.223057    258650.2689 
 136   0.0000   11561.253303    314597.6962 
 137   0.0000   14420.195870    392393.4785 
 138   0.0000   14420.195870    392393.4785 
 139   0.0000   14420.195870    392393.4785 
 140   0.0000   23354.303816    635502.9152 
 141   0.0000   28722.544641    781580.1744 
 142   0.0000   28722.544641    781580.1744 
 143   0.0000   28722.544641    781580.1744 
 144   0.0000   46206.760107   1257349.8649 
 145   0.0000   56484.976069   1537034.3402 
 146   0.0000   56484.976069   1537034.3402 
 147   0.0000   56484.976069   1537034.3402 
 148   0.0000   89709.355820   2441115.6758 
 149   0.0000   112226.276052   3053832.2252 
 150   0.0000   112226.276052   3053832.2252 
 151   0.0000   112226.276052   3053832.2252 
 152   0.0000   171001.539164   4653188.4442 
 153   0.0000   219259.189369   5966345.8659 
 154   0.0000   219259.189369   5966345.8659 
 155   0.0000   219259.189369   5966345.8659 
 156   0.0000   319605.432529   8696905.9613 
 157   0.0000   585305.768655   15926979.6771 
 158   0.0000   1046115.000674   28466236.3638 
 159   0.0000   1834279.923604   49913294.2641 
 160   0.0000   3111248.521759   84661376.3783 
 161   0.0000   5397612.456463   146876501.9974 
 162   0.0000   8729464.271887   237540799.1789 

                    ********************************
                    * MULLIKEN POPULATION ANALYSIS *
                    ********************************

--------------------------------------------
MULLIKEN ATOMIC CHARGES AND SPIN POPULATIONS
--------------------------------------------
   0 Sr:    0.000000    0.000000
Sum of atomic charges         :    0.0000000
Sum of atomic spin populations:    0.0000000

-----------------------------------------------------
MULLIKEN REDUCED ORBITAL CHARGES AND SPIN POPULATIONS
-----------------------------------------------------
CHARGE
  0 Srs       :    10.000000  s :    10.000000
      pz      :     6.000000  p :    18.000000
      px      :     6.000000
      py      :     6.000000
      dz2     :     2.000000  d :    10.000000
      dxz     :     2.000000
      dyz     :     2.000000
      dx2y2   :     2.000000
      dxy     :     2.000000

SPIN
  0 Srs       :     0.000000  s :     0.000000
      pz      :     0.000000  p :     0.000000
      px      :     0.000000
      py      :     0.000000
      dz2     :     0.000000  d :     0.000000
      dxz     :     0.000000
      dyz     :     0.000000
      dx2y2   :     0.000000
      dxy     :     0.000000


                     *******************************
                     * LOEWDIN POPULATION ANALYSIS *
                     *******************************

-------------------------------------------
LOEWDIN ATOMIC CHARGES AND SPIN POPULATIONS
-------------------------------------------
   0 Sr:    0.000000    0.000000

----------------------------------------------------
LOEWDIN REDUCED ORBITAL CHARGES AND SPIN POPULATIONS
----------------------------------------------------
CHARGE
  0 Srs       :    10.000000  s :    10.000000
      pz      :     6.000000  p :    18.000000
      px      :     6.000000
      py      :     6.000000
      dz2     :     2.000000  d :    10.000000
      dxz     :     2.000000
      dyz     :     2.000000
      dx2y2   :     2.000000
      dxy     :     2.000000

SPIN
  0 Srs       :    -0.000000  s :    -0.000000
      pz      :     0.000000  p :     0.000000
      px      :     0.000000
      py      :    -0.000000
      dz2     :    -0.000000  d :     0.000000
      dxz     :     0.000000
      dyz     :    -0.000000
      dx2y2   :     0.000000
      dxy     :     0.000000


                      *****************************
                      * MAYER POPULATION ANALYSIS *
                      *****************************

  NA   - Mulliken gross atomic population
  ZA   - Total nuclear charge
  QA   - Mulliken gross atomic charge
  VA   - Mayer's total valence
  BVA  - Mayer's bonded valence
  FA   - Mayer's free valence

  ATOM       NA         ZA         QA         VA         BVA        FA
  0 Sr    38.0000    38.0000     0.0000     0.0000     0.0000     0.0000

  Mayer bond orders larger than 0.100000


-------
TIMINGS
-------

Total SCF time: 0 days 0 hours 0 min 13 sec 

Total time                  ....      13.345 sec
Sum of individual times     ....      12.538 sec  ( 94.0%)

Fock matrix formation       ....       7.399 sec  ( 55.4%)
  XC integration            ....       5.524 sec  ( 74.7% of F)
    Basis function eval.    ....       0.051 sec  (  0.9% of XC)
    Density eval.           ....       0.104 sec  (  1.9% of XC)
    XC-Functional eval.     ....       0.032 sec  (  0.6% of XC)
    XC-Potential eval.      ....       0.100 sec  (  1.8% of XC)
Diagonalization             ....       0.081 sec  (  0.6%)
Density matrix formation    ....       0.010 sec  (  0.1%)
Population analysis         ....       0.090 sec  (  0.7%)
Initial guess               ....       0.388 sec  (  2.9%)
Orbital Transformation      ....       0.000 sec  (  0.0%)
Orbital Orthonormalization  ....       0.000 sec  (  0.0%)
DIIS solution               ....       0.024 sec  (  0.2%)
SOSCF solution              ....       0.074 sec  (  0.6%)
Grid generation             ....       4.473 sec  ( 33.5%)

Maximum memory used throughout the entire SCF-calculation: 232.0 MB

-------------------------   --------------------
FINAL SINGLE POINT ENERGY     -3215.775118214542
-------------------------   --------------------


                            ***************************************
                            *     ORCA property calculations      *
                            ***************************************

                                    ---------------------
                                    Active property flags
                                    ---------------------
   (+) Dipole Moment


------------------------------------------------------------------------------
                       ORCA ELECTRIC PROPERTIES CALCULATION
------------------------------------------------------------------------------

Dipole Moment Calculation                       ... on
Quadrupole Moment Calculation                   ... off
Polarizability Calculation                      ... off
GBWName                                         ... Sr_ugbs_pbe.gbw
Electron density                                ... Sr_ugbs_pbe.scfp
The origin for moment calculation is the CENTER OF MASS  = ( 0.000000,  0.000000  0.000000)

-------------
DIPOLE MOMENT
-------------
                                X             Y             Z
Electronic contribution:      0.00000       0.00000      -0.00000
Nuclear contribution   :      0.00000       0.00000       0.00000
                        -----------------------------------------
Total Dipole Moment    :      0.00000       0.00000      -0.00000
                        -----------------------------------------
Magnitude (a.u.)       :      0.00000
Magnitude (Debye)      :      0.00000



--------------------
Rotational spectrum 
--------------------
 
Rotational constants in cm-1:     0.000000     0.000000     0.000000 
Rotational constants in MHz :     0.000000     0.000000     0.000000 

 Dipole components along the rotational axes: 
x,y,z [a.u.] :     0.000000     0.000000    -0.000000 
x,y,z [Debye]:     0.000000     0.000000    -0.000000 

 

Timings for individual modules:

Sum of individual times         ...       31.754 sec (=   0.529 min)
GTO integral calculation        ...        8.260 sec (=   0.138 min)  26.0 %
Relativistic integrals          ...        7.366 sec (=   0.123 min)  23.2 %
SCF iterations                  ...       16.127 sec (=   0.269 min)  50.8 %
                             ****ORCA TERMINATED NORMALLY****
TOTAL RUN TIME: 0 days 0 hours 0 minutes 41 seconds 818 msec
