
                                 *****************
                                 * O   R   C   A *
                                 *****************

                                            #,                                       
                                            ###                                      
                                            ####                                     
                                            #####                                    
                                            ######                                   
                                           ########,                                 
                                     ,,################,,,,,                         
                               ,,#################################,,                 
                          ,,##########################################,,             
                       ,#########################################, ''#####,          
                    ,#############################################,,   '####,        
                  ,##################################################,,,,####,       
                ,###########''''           ''''###############################       
              ,#####''   ,,,,##########,,,,          '''####'''          '####       
            ,##' ,,,,###########################,,,                        '##       
           ' ,,###''''                  '''############,,,                           
         ,,##''                                '''############,,,,        ,,,,,,###''
      ,#''                                            '''#######################'''  
     '                                                          ''''####''''         
             ,#######,   #######,   ,#######,      ##                                
            ,#'     '#,  ##    ##  ,#'     '#,    #''#        ######   ,####,        
            ##       ##  ##   ,#'  ##            #'  '#       #        #'  '#        
            ##       ##  #######   ##           ,######,      #####,   #    #        
            '#,     ,#'  ##    ##  '#,     ,#' ,#      #,         ##   #,  ,#        
             '#######'   ##     ##  '#######'  #'      '#     #####' # '####'        



                  #######################################################
                  #                        -***-                        #
                  #          Department of theory and spectroscopy      #
                  #    Directorship and core code : Frank Neese         #
                  #        Max Planck Institute fuer Kohlenforschung    #
                  #                Kaiser Wilhelm Platz 1               #
                  #                 D-45470 Muelheim/Ruhr               #
                  #                      Germany                        #
                  #                                                     #
                  #                  All rights reserved                #
                  #                        -***-                        #
                  #######################################################


                         Program Version 5.0.3 -  RELEASE  -


 With contributions from (in alphabetic order):
   Daniel Aravena         : Magnetic Suceptibility
   Michael Atanasov       : Ab Initio Ligand Field Theory (pilot matlab implementation)
   Alexander A. Auer      : GIAO ZORA, VPT2 properties, NMR spectrum
   Ute Becker             : Parallelization
   Giovanni Bistoni       : ED, misc. LED, open-shell LED, HFLD
   Martin Brehm           : Molecular dynamics
   Dmytro Bykov           : SCF Hessian
   Vijay G. Chilkuri      : MRCI spin determinant printing, contributions to CSF-ICE
   Dipayan Datta          : RHF DLPNO-CCSD density
   Achintya Kumar Dutta   : EOM-CC, STEOM-CC
   Dmitry Ganyushin       : Spin-Orbit,Spin-Spin,Magnetic field MRCI
   Miquel Garcia          : C-PCM and meta-GGA Hessian, CC/C-PCM, Gaussian charge scheme
   Yang Guo               : DLPNO-NEVPT2, F12-NEVPT2, CIM, IAO-localization
   Andreas Hansen         : Spin unrestricted coupled pair/coupled cluster methods
   Benjamin Helmich-Paris : MC-RPA, TRAH-SCF, COSX integrals
   Lee Huntington         : MR-EOM, pCC
   Robert Izsak           : Overlap fitted RIJCOSX, COSX-SCS-MP3, EOM
   Marcus Kettner         : VPT2
   Christian Kollmar      : KDIIS, OOCD, Brueckner-CCSD(T), CCSD density, CASPT2, CASPT2-K
   Simone Kossmann        : Meta GGA functionals, TD-DFT gradient, OOMP2, MP2 Hessian
   Martin Krupicka        : Initial AUTO-CI
   Lucas Lang             : DCDCAS
   Marvin Lechner         : AUTO-CI (C++ implementation), FIC-MRCC
   Dagmar Lenk            : GEPOL surface, SMD
   Dimitrios Liakos       : Extrapolation schemes; Compound Job, initial MDCI parallelization
   Dimitrios Manganas     : Further ROCIS development; embedding schemes
   Dimitrios Pantazis     : SARC Basis sets
   Anastasios Papadopoulos: AUTO-CI, single reference methods and gradients
   Taras Petrenko         : DFT Hessian,TD-DFT gradient, ASA, ECA, R-Raman, ABS, FL, XAS/XES, NRVS
   Peter Pinski           : DLPNO-MP2, DLPNO-MP2 Gradient
   Christoph Reimann      : Effective Core Potentials
   Marius Retegan         : Local ZFS, SOC
   Christoph Riplinger    : Optimizer, TS searches, QM/MM, DLPNO-CCSD(T), (RO)-DLPNO pert. Triples
   Tobias Risthaus        : Range-separated hybrids, TD-DFT gradient, RPA, STAB
   Michael Roemelt        : Original ROCIS implementation
   Masaaki Saitow         : Open-shell DLPNO-CCSD energy and density
   Barbara Sandhoefer     : DKH picture change effects
   Avijit Sen             : IP-ROCIS
   Kantharuban Sivalingam : CASSCF convergence, NEVPT2, FIC-MRCI
   Bernardo de Souza      : ESD, SOC TD-DFT
   Georgi Stoychev        : AutoAux, RI-MP2 NMR, DLPNO-MP2 response
   Willem Van den Heuvel  : Paramagnetic NMR
   Boris Wezisla          : Elementary symmetry handling
   Frank Wennmohs         : Technical directorship


 We gratefully acknowledge several colleagues who have allowed us to
 interface, adapt or use parts of their codes:
   Stefan Grimme, W. Hujo, H. Kruse, P. Pracht,  : VdW corrections, initial TS optimization,
                  C. Bannwarth, S. Ehlert          DFT functionals, gCP, sTDA/sTD-DF
   Ed Valeev, F. Pavosevic, A. Kumar             : LibInt (2-el integral package), F12 methods
   Garnet Chan, S. Sharma, J. Yang, R. Olivares  : DMRG
   Ulf Ekstrom                                   : XCFun DFT Library
   Mihaly Kallay                                 : mrcc  (arbitrary order and MRCC methods)
   Jiri Pittner, Ondrej Demel                    : Mk-CCSD
   Frank Weinhold                                : gennbo (NPA and NBO analysis)
   Christopher J. Cramer and Donald G. Truhlar   : smd solvation model
   Lars Goerigk                                  : TD-DFT with DH, B97 family of functionals
   V. Asgeirsson, H. Jonsson                     : NEB implementation
   FAccTs GmbH                                   : IRC, NEB, NEB-TS, DLPNO-Multilevel, CI-OPT
                                                   MM, QMMM, 2- and 3-layer-ONIOM, Crystal-QMMM,
                                                   LR-CPCM, SF, NACMEs, symmetry and pop. for TD-DFT,
                                                   nearIR, NL-DFT gradient (VV10), updates on ESD,
                                                   ML-optimized integration grids
   S Lehtola, MJT Oliveira, MAL Marques          : LibXC Library
   Liviu Ungur et al                             : ANISO software


 Your calculation uses the libint2 library for the computation of 2-el integrals
 For citations please refer to: http://libint.valeyev.net

 Your ORCA version has been built with support for libXC version: 5.1.0
 For citations please refer to: https://tddft.org/programs/libxc/

 This ORCA versions uses:
   CBLAS   interface :  Fast vector & matrix operations
   LAPACKE interface :  Fast linear algebra routines
   SCALAPACK package :  Parallel linear algebra routines
   Shared memory     :  Shared parallel matrices
   BLAS/LAPACK       :  OpenBLAS 0.3.15  USE64BITINT DYNAMIC_ARCH NO_AFFINITY SkylakeX SINGLE_THREADED
        Core in use  :  SkylakeX
   Copyright (c) 2011-2014, The OpenBLAS Project


SCAN-COORDS
Reading of a custom orbital basis requested
Basis file: Tc_ano-rcc-vqzp.basis
READING GTO-BASIS: TECHNETIUM
Basis read successfully!

================================================================================

----- Orbital basis set information -----
Basis read from file: Tc_ano-rcc-vqzp.basis

================================================================================
                                        WARNINGS
                       Please study these warnings very carefully!
================================================================================

WARNING: Old DensityContainer found on disk!
         Will remove this file - 
         If you want to keep old densities, please start your calculation with a different basename. 


INFO   : the flag for use of the SHARK integral package has been found!

================================================================================
                                       INPUT FILE
================================================================================
NAME = Tc_ano-rcc-vqzp_pbe.inp
|  1> !uks pbe nori verytightscf nososcf defgrid3
|  2> 
|  3> %pal
|  4>   nprocs 16
|  5> end
|  6> %coords
|  7>   charge 0
|  8>   mult 6
|  9>   units bohrs
| 10>   coords
| 11>     Tc 0.0 0.0 0.0
| 12>   end
| 13> end
| 14> %scf
| 15>   maxiter 400
| 16> end
| 17> %basis
| 18>   gtoname "Tc_ano-rcc-vqzp.basis"
| 19>   delECP Tc
| 20> end
| 21> %rel
| 22>   method zora
| 23>   modelpot 1, 0, 0, 0
| 24>   c 137.035999084
| 25> end
| 26> 
| 27>                          ****END OF INPUT****
================================================================================

                       ****************************
                       * Single Point Calculation *
                       ****************************

---------------------------------
CARTESIAN COORDINATES (ANGSTROEM)
---------------------------------
  Tc     0.000000    0.000000    0.000000

----------------------------
CARTESIAN COORDINATES (A.U.)
----------------------------
  NO LB      ZA    FRAG     MASS         X           Y           Z
   0 Tc   43.0000    0    97.000    0.000000    0.000000    0.000000

--------------------------------
INTERNAL COORDINATES (ANGSTROEM)
--------------------------------
 Tc     0   0   0     0.000000000000     0.00000000     0.00000000

---------------------------
INTERNAL COORDINATES (A.U.)
---------------------------
 Tc     0   0   0     0.000000000000     0.00000000     0.00000000

---------------------
BASIS SET INFORMATION
---------------------
There are 1 groups of distinct atoms

 Group   1 Type Tc  : 168s126p65d18f8g2h contracted to 8s7p5d3f2g1h pattern {2121212121212121/18181818181818/1313131313/666/44/2}

Atom   0Tc   basis set group =>   1

Checking for AutoStart:
The File: Tc_ano-rcc-vqzp_pbe.gbw exists
Trying to determine its content:
     ... Fine, the file contains calculation information
     ... Fine, the calculation information was read
     ... Fine, the file contains a basis set
     ... Fine, the basis set was read
     ... Fine, the file contains a geometry
     ... Fine, the geometry was read
     ... Fine, the file contains a set of orbitals
     ... Fine, the orbitals can be read
     => possible old guess file was deleted
     => GBW file was renamed to GES file
     => GES file is set as startup file
     => Guess is set to MORead
     ... now leaving AutoStart



           ************************************************************
           *        Program running with 16 parallel MPI-processes    *
           *              working on a common directory               *
           ************************************************************
------------------------------------------------------------------------------
                           ORCA GTO INTEGRAL CALCULATION
------------------------------------------------------------------------------
------------------------------------------------------------------------------
                   ___                                                        
                  /   \      - P O W E R E D   B Y -                         
                 /     \                                                     
                 |  |  |   _    _      __       _____    __    __             
                 |  |  |  | |  | |    /  \     |  _  \  |  |  /  |          
                  \  \/   | |  | |   /    \    | | | |  |  | /  /          
                 / \  \   | |__| |  /  /\  \   | |_| |  |  |/  /          
                |  |  |   |  __  | /  /__\  \  |    /   |      \           
                |  |  |   | |  | | |   __   |  |    \   |  |\   \          
                \     /   | |  | | |  |  |  |  | |\  \  |  | \   \       
                 \___/    |_|  |_| |__|  |__|  |_| \__\ |__|  \__/        
                                                                              
                      - O R C A' S   B I G   F R I E N D -                    
                                      &                                       
                       - I N T E G R A L  F E E D E R -                       
                                                                              
 v1 FN, 2020, v2 2021                                                         
------------------------------------------------------------------------------


Reading SHARK input file Tc_ano-rcc-vqzp_pbe.SHARKINP.tmp ... ok
----------------------
SHARK INTEGRAL PACKAGE
----------------------

Number of atoms                             ...      1
Number of basis functions                   ...    229
Number of shells                            ...     63
Maximum angular momentum                    ...      5
Integral batch strategy                     ... SHARK/LIBINT Hybrid
RI-J (if used) integral strategy            ... SPLIT-RIJ (Revised 2003 algorithm where possible)
Printlevel                                  ...      1
Contraction scheme used                     ... PARTIAL GENERAL contraction
Coulomb Range Separation                    ... NOT USED
Exchange Range Separation                   ... NOT USED
Finite Nucleus Model                        ... NOT USED
Auxiliary Coulomb fitting basis             ... NOT available
Auxiliary J/K fitting basis                 ... NOT available
Auxiliary Correlation fitting basis         ... NOT available
Auxiliary 'external' fitting basis          ... NOT available
Integral threshold                          ...     1.000000e-12
Primitive cut-off                           ...     1.000000e-14
Primitive pair pre-selection threshold      ...     1.000000e-14

Calculating pre-screening integrals         ... done (  0.1 sec) Dimension = 63
Calculating pre-screening integrals (ORCA)  ... done (  2.0 sec) Dimension = 26
Organizing shell pair data                  ... done (  0.1 sec)
Shell pair information
Total number of shell pairs                 ...      2016
Shell pairs after pre-screening             ...      1990
Total number of primitive shell pairs       ...      2081
Primitive shell pairs kept                  ...      2050
          la=0 lb=0:    231 shell pairs
          la=1 lb=0:    378 shell pairs
          la=1 lb=1:    171 shell pairs
          la=2 lb=0:    273 shell pairs
          la=2 lb=1:    234 shell pairs
          la=2 lb=2:     91 shell pairs
          la=3 lb=0:    119 shell pairs
          la=3 lb=1:    108 shell pairs
          la=3 lb=2:     78 shell pairs
          la=3 lb=3:     21 shell pairs
          la=4 lb=0:     72 shell pairs
          la=4 lb=1:     70 shell pairs
          la=4 lb=2:     52 shell pairs
          la=4 lb=3:     24 shell pairs
          la=4 lb=4:     10 shell pairs
          la=5 lb=0:     17 shell pairs
          la=5 lb=1:     17 shell pairs
          la=5 lb=2:     13 shell pairs
          la=5 lb=3:      6 shell pairs
          la=5 lb=4:      4 shell pairs
          la=5 lb=5:      1 shell pairs

Calculating one electron integrals          ... done (  0.0 sec)
Calculating Nuclear repulsion               ... done (  0.0 sec) ENN=      0.000000000000 Eh

SHARK setup successfully completed in   2.4 seconds

Maximum memory used throughout the entire GTOINT-calculation: 281.5 MB


           ************************************************************
           *        Program running with 16 parallel MPI-processes    *
           *              working on a common directory               *
           ************************************************************
------------------------------------------------------------------------------
                          ORCA RELATIVISTIC HAMILTONIAN
------------------------------------------------------------------------------

Relativistic Method            ... ZORA(MP)
Treatment of potential         ... Van Wuellen
Nucleus model                  ... Point Nucleus
Speed of light used            ... 137.03599908400000


            *************************************************
            *         ZERO ORDER REGULAR APPROXIMATION      *
            *                     ZORA(MP)                  *
            *            Programmed by FN according to      *
            *                   C. van Wuellen              *
            *       J. Chem. Phys. (1998) vol 109, 392-399  *
            *************************************************

Terms included in model potential: +V(e,N)
Basis function cutoff value   ... 1.000000e-12
Loading the fitted atomic densities  (DKH4)  ... done
Calculating the cutoffs                      ... done
Number of fit functions                      ... 28
Setting up the integration grid ... done

Maximum memory used throughout the entire REL-calculation: 23.6 MB


           ************************************************************
           *        Program running with 16 parallel MPI-processes    *
           *              working on a common directory               *
           ************************************************************
-------------------------------------------------------------------------------
                                 ORCA SCF
-------------------------------------------------------------------------------

------------
SCF SETTINGS
------------
Hamiltonian:
 Density Functional     Method          .... DFT(GTOs)
 Exchange Functional    Exchange        .... PBE
   PBE kappa parameter   XKappa         ....  0.804000
   PBE mue parameter    XMuePBE         ....  0.219520
 Correlation Functional Correlation     .... PBE
   PBE beta parameter  CBetaPBE         ....  0.066725
 LDA part of GGA corr.  LDAOpt          .... PW91-LDA
 Gradients option       PostSCFGGA      .... off
   Density functional embedding theory  .... OFF
   NL short-range parameter             ....  6.400000

Relativistic Settings:
 Scalar relativistic method             .... ZORA
 Speed of light used       Velit        ....       137.035999
Orbital energies will be scaled


General Settings:
 Integral files         IntName         .... Tc_ano-rcc-vqzp_pbe
 Hartree-Fock type      HFTyp           .... UHF
 Total Charge           Charge          ....    0
 Multiplicity           Mult            ....    6
 Number of Electrons    NEL             ....   43
 Basis Dimension        Dim             ....  104
 Nuclear Repulsion      ENuc            ....      0.0000000000 Eh

Convergence Acceleration:
 DIIS                   CNVDIIS         .... on
   Start iteration      DIISMaxIt       ....    12
   Startup error        DIISStart       ....  0.200000
   # of expansion vecs  DIISMaxEq       ....     5
   Bias factor          DIISBfac        ....   1.050
   Max. coefficient     DIISMaxC        ....  10.000
 Trust-Rad. Augm. Hess. CNVTRAH         .... auto
   Auto Start mean grad. ratio tolernc. ....  1.125000
   Auto Start start iteration           ....     1
   Auto Start num. interpolation iter.  ....    10
   Max. Number of Micro iterations      ....    16
   Max. Number of Macro iterations      .... Maxiter - #DIIS iter
   Number of Davidson start vectors     ....     2
   Converg. threshold I  (grad. norm)   ....   2.000e-06
   Converg. threshold II (energy diff.) ....   1.000e-09
   Grad. Scal. Fac. for Micro threshold ....   0.100
   Minimum threshold for Micro iter.    ....   0.010
   NR start threshold (gradient norm)   ....   0.001
   Initial trust radius                 ....   0.400
   Minimum AH scaling param. (alpha)    ....   1.000
   Maximum AH scaling param. (alpha)    .... 1000.000
   Orbital update algorithm             .... Taylor
   White noise on init. David. guess    .... on
   Maximum white noise                  ....   0.010
   Quad. conv. algorithm                .... NR
 SOSCF                  CNVSOSCF        .... off
 Level Shifting         CNVShift        .... on
   Level shift para.    LevelShift      ....    0.2500
   Turn off err/grad.   ShiftErr        ....    0.0010
 Zerner damping         CNVZerner       .... off
 Static damping         CNVDamp         .... on
   Fraction old density DampFac         ....    0.7000
   Max. Damping (<1)    DampMax         ....    0.9800
   Min. Damping (>=0)   DampMin         ....    0.0000
   Turn off err/grad.   DampErr         ....    0.1000
 Fernandez-Rico         CNVRico         .... off

SCF Procedure:
 Maximum # iterations   MaxIter         ....   400
 SCF integral mode      SCFMode         .... Direct
   Integral package                     .... SHARK and LIBINT hybrid scheme
 Reset frequency        DirectResetFreq ....    20
 Integral Threshold     Thresh          ....  1.000e-12 Eh
 Primitive CutOff       TCut            ....  1.000e-14 Eh

Convergence Tolerance:
 Convergence Check Mode ConvCheckMode   .... Total+1el-Energy
 Convergence forced     ConvForced      .... 0
 Energy Change          TolE            ....  1.000e-09 Eh
 1-El. energy change                    ....  1.000e-06 Eh
 DIIS Error             TolErr          ....  1.000e-08


Diagonalization of the overlap matrix:
Smallest eigenvalue                        ... 1.000e+00
Time for diagonalization                   ...    0.002 sec
Threshold for overlap eigenvalues          ... 1.000e-08
Number of eigenvalues below threshold      ... 0
Time for construction of square roots      ...    0.002 sec
Total time needed                          ...    0.004 sec

---------------------
INITIAL GUESS: MOREAD
---------------------
Guess MOs are being read from file: Tc_ano-rcc-vqzp_pbe.ges
Input Geometry matches current geometry (good)
Input basis set matches current basis set (good)
MOs were renormalized
MOs were reorthogonalized (Cholesky)
                      ------------------
                      INITIAL GUESS DONE (   0.0 sec)
                      ------------------
-------------------
DFT GRID GENERATION
-------------------

General Integration Accuracy     IntAcc      ... 4.959
Radial Grid Type                 RadialGrid  ... OptM3 with GC (2021)
Angular Grid (max. ang.)         AngularGrid ... 6 (Lebedev-590)
Angular grid pruning method      GridPruning ... 4 (adaptive)
Weight generation scheme         WeightScheme... Becke
Basis function cutoff            BFCut       ... 1.0000e-12
Integration weight cutoff        WCut        ... 1.0000e-14
Angular grids for H and He will be reduced by one unit
Partially contracted basis set               ... off
Rotationally invariant grid construction     ... off

Total number of grid points                  ...    65888
Total number of batches                      ...     1030
Average number of points per batch           ...       63
Average number of grid points per atom       ...    65888
Time for grid setup =    2.764 sec

--------------
SCF ITERATIONS
--------------
ITER       Energy         Delta-E        Max-DP      RMS-DP      [F,P]     Damp
               ***  Starting incremental Fock matrix formation  ***
  0  -4335.9327296093   0.000000000000 0.00059416  0.00000947  0.0012432 0.7000
  1  -4335.9327337099  -0.000004100630 0.00068697  0.00000865  0.0005769 0.7000
                               ***Turning on DIIS***
  2  -4335.9327352815  -0.000001571630 0.00719752  0.00007964  0.0002678 0.0000
  3  -4335.9327392960  -0.000004014435 0.00234771  0.00002431  0.0005134 0.0000
  4  -4335.9327406956  -0.000001399603 0.00216283  0.00002540  0.0003091 0.0000
  5  -4335.9327414430  -0.000000747407 0.00711674  0.00008158  0.0002828 0.0000
  6  -4335.9327442077  -0.000002764739 0.02145829  0.00027489  0.0002532 0.0000
  7  -4335.9327504494  -0.000006241661 0.00678380  0.00008527  0.0003723 0.0000
  8  -4335.9327523437  -0.000001894352 0.02457301  0.00030960  0.0001544 0.0000
  9  -4335.9327554515  -0.000003107805 0.00507113  0.00006137  0.0002190 0.0000
 10  -4335.9327552138   0.000000237712 0.00869798  0.00010958  0.0001441 0.0000
 11  -4335.9327560122  -0.000000798419 0.00671434  0.00008120  0.0001114 0.0000
 12  -4335.9327564326  -0.000000420398 0.01211073  0.00014694  0.0000697 0.0000
 13  -4335.9327568676  -0.000000435000 0.00173004  0.00001998  0.0000657 0.0000
 14  -4335.9327568482   0.000000019427 0.00475171  0.00005725  0.0000272 0.0000
 15  -4335.9327569620  -0.000000113752 0.00483173  0.00005739  0.0000222 0.0000
 16  -4335.9327570420  -0.000000080027 0.00916476  0.00010841  0.0000168 0.0000
 17  -4335.9327571206  -0.000000078565 0.00053225  0.00000581  0.0000208 0.0000
 18  -4335.9327571189   0.000000001629 0.00058137  0.00000672  0.0000151 0.0000
 19  -4335.9327571172   0.000000001736 0.00253937  0.00002982  0.0000089 0.0000
               *** Restarting incremental Fock matrix formation ***
                                   *** Resetting DIIS ***
 20  -4335.9327571279  -0.000000010686 0.00005262  0.00000061  0.0000063 0.0000
 21  -4335.9327571281  -0.000000000204 0.00007344  0.00000068  0.0000032 0.0000
 22  -4335.9327571280   0.000000000111 0.00004189  0.00000042  0.0000079 0.0000
 23  -4335.9327571283  -0.000000000312 0.00003882  0.00000044  0.0000023 0.0000
 24  -4335.9327571284  -0.000000000097 0.00006334  0.00000073  0.0000022 0.0000
 25  -4335.9327571286  -0.000000000211 0.00010667  0.00000125  0.0000022 0.0000
 26  -4335.9327571289  -0.000000000280 0.00023475  0.00000275  0.0000021 0.0000
 27  -4335.9327571295  -0.000000000619 0.00002609  0.00000028  0.0000019 0.0000
 28  -4335.9327571294   0.000000000068 0.00058631  0.00000686  0.0000019 0.0000
 29  -4335.9327571308  -0.000000001398 0.00076223  0.00000893  0.0000016 0.0000
 30  -4335.9327571322  -0.000000001335 0.00095610  0.00001111  0.0000012 0.0000
 31  -4335.9327571331  -0.000000000985 0.00046885  0.00000548  0.0000017 0.0000
 32  -4335.9327571334  -0.000000000236 0.00024929  0.00000291  0.0000003 0.0000
 33  -4335.9327571334  -0.000000000030 0.00003508  0.00000041  0.0000002 0.0000
 34  -4335.9327571334  -0.000000000010 0.00001222  0.00000014  0.0000001 0.0000
                 **** Energy Check signals convergence ****

               *****************************************************
               *                     SUCCESS                       *
               *           SCF CONVERGED AFTER  35 CYCLES          *
               *****************************************************


----------------
TOTAL SCF ENERGY
----------------

Total Energy       :        -4335.93275713 Eh         -117986.72865 eV

Components:
Nuclear Repulsion  :            0.00000000 Eh               0.00000 eV
Electronic Energy  :        -4335.93275713 Eh         -117986.72865 eV
One Electron Energy:        -5961.74275563 Eh         -162227.26786 eV
Two Electron Energy:         1625.80999849 Eh           44240.53920 eV

Virial components:
Potential Energy   :        -8902.09177307 Eh         -242238.23230 eV
Kinetic Energy     :         4566.15901594 Eh          124251.50365 eV
Virial Ratio       :            1.94957989


DFT components:
N(Alpha)           :       23.999999998161 electrons
N(Beta)            :       18.999999998346 electrons
N(Total)           :       42.999999996507 electrons
E(X)               :     -127.402117092976 Eh       
E(C)               :       -2.148848686396 Eh       
E(XC)              :     -129.550965779372 Eh       
DFET-embed. en.    :        0.000000000000 Eh       

---------------
SCF CONVERGENCE
---------------

  Last Energy change         ...   -1.1823e-11  Tolerance :   1.0000e-09
  Last MAX-Density change    ...    2.4999e-06  Tolerance :   1.0000e-08
  Last RMS-Density change    ...    3.3362e-08  Tolerance :   1.0000e-09
  Last DIIS Error            ...    1.4607e-07  Tolerance :   1.0000e-08

             **** THE GBW FILE WAS UPDATED (Tc_ano-rcc-vqzp_pbe.gbw) ****
             **** DENSITY Tc_ano-rcc-vqzp_pbe.scfp WAS UPDATED ****
             **** ENERGY FILE WAS UPDATED (Tc_ano-rcc-vqzp_pbe.en.tmp) ****
----------------------
UHF SPIN CONTAMINATION
----------------------

Warning: in a DFT calculation there is little theoretical justification to 
         calculate <S**2> as in Hartree-Fock theory. We will do it anyways
         but you should keep in mind that the values have only limited relevance

Expectation value of <S**2>     :     8.757438
Ideal value S*(S+1) for S=2.5   :     8.750000
Deviation                       :     0.007438

             **** THE GBW FILE WAS UPDATED (Tc_ano-rcc-vqzp_pbe.gbw) ****
             **** DENSITY Tc_ano-rcc-vqzp_pbe.scfp WAS UPDATED ****
----------------
ORBITAL ENERGIES
----------------
                 SPIN UP ORBITALS
  NO   OCC          E(Eh)            E(eV) 
   0   1.0000    -784.986801    -21360.5768 
   1   1.0000    -109.964330     -2992.2815 
   2   1.0000     -98.821273     -2689.0635 
   3   1.0000     -98.821273     -2689.0635 
   4   1.0000     -98.816712     -2688.9394 
   5   1.0000     -19.002262      -517.0778 
   6   1.0000     -15.289623      -416.0518 
   7   1.0000     -15.289622      -416.0518 
   8   1.0000     -15.284467      -415.9115 
   9   1.0000      -9.137908      -248.6551 
  10   1.0000      -9.137908      -248.6551 
  11   1.0000      -9.136305      -248.6115 
  12   1.0000      -9.136304      -248.6115 
  13   1.0000      -9.130435      -248.4518 
  14   1.0000      -2.646651       -72.0190 
  15   1.0000      -1.643178       -44.7131 
  16   1.0000      -1.643177       -44.7131 
  17   1.0000      -1.611331       -43.8466 
  18   1.0000      -0.240604        -6.5472 
  19   1.0000      -0.240604        -6.5472 
  20   1.0000      -0.220916        -6.0114 
  21   1.0000      -0.220916        -6.0114 
  22   1.0000      -0.206519        -5.6197 
  23   1.0000      -0.171579        -4.6689 
  24   0.0000      -0.052465        -1.4276 
  25   0.0000      -0.052465        -1.4276 
  26   0.0000      -0.035315        -0.9610 
  27   0.0000       0.033205         0.9035 
  28   0.0000       0.126075         3.4307 
  29   0.0000       0.126075         3.4307 
  30   0.0000       0.134043         3.6475 
  31   0.0000       0.134043         3.6475 
  32   0.0000       0.140345         3.8190 
  33   0.0000       0.192668         5.2428 
  34   0.0000       0.192668         5.2428 
  35   0.0000       0.213624         5.8130 
  36   0.0000       0.507858        13.8195 
  37   0.0000       0.507858        13.8195 
  38   0.0000       0.520865        14.1735 
  39   0.0000       0.520865        14.1735 
  40   0.0000       0.534649        14.5485 
  41   0.0000       0.534649        14.5485 
  42   0.0000       0.541937        14.7468 
  43   0.0000       0.551945        15.0192 
  44   0.0000       0.916173        24.9303 
  45   0.0000       0.916173        24.9303 
  46   0.0000       0.931892        25.3581 
  47   0.0000       0.931892        25.3581 
  48   0.0000       0.949027        25.8243 
  49   0.0000       1.496311        40.7167 
  50   0.0000       1.496311        40.7167 
  51   0.0000       1.524904        41.4947 
  52   0.0000       1.582053        43.0498 
  53   0.0000       1.582053        43.0498 
  54   0.0000       1.592644        43.3380 
  55   0.0000       1.592644        43.3380 
  56   0.0000       1.614223        43.9252 
  57   0.0000       1.614223        43.9252 
  58   0.0000       1.626432        44.2575 
  59   0.0000       1.800251        48.9873 
  60   0.0000       1.800251        48.9873 
  61   0.0000       1.812764        49.3278 
  62   0.0000       1.812764        49.3278 
  63   0.0000       1.828267        49.7497 
  64   0.0000       1.828267        49.7497 
  65   0.0000       1.841415        50.1074 
  66   0.0000       1.841415        50.1074 
  67   0.0000       1.846404        50.2432 
  68   0.0000       3.714654       101.0809 
  69   0.0000       3.714654       101.0809 
  70   0.0000       3.726219       101.3956 
  71   0.0000       3.726220       101.3956 
  72   0.0000       3.734608       101.6239 
  73   0.0000       3.756848       102.2290 
  74   0.0000       4.462978       121.4438 
  75   0.0000       4.462978       121.4438 
  76   0.0000       4.468319       121.5891 
  77   0.0000       4.468319       121.5891 
  78   0.0000       4.483927       122.0139 
  79   0.0000       4.483927       122.0139 
  80   0.0000       4.491586       122.2223 
  81   0.0000       5.727643       155.8571 
  82   0.0000       5.727643       155.8571 
  83   0.0000       5.730397       155.9320 
  84   0.0000       5.730397       155.9320 
  85   0.0000       5.744654       156.3200 
  86   0.0000       5.744654       156.3200 
  87   0.0000       5.758364       156.6931 
  88   0.0000       5.758365       156.6931 
  89   0.0000       5.763807       156.8412 
  90   0.0000       6.344560       172.6443 
  91   0.0000       6.344561       172.6443 
  92   0.0000       6.365443       173.2125 
  93   0.0000       6.677087       181.6928 
  94   0.0000       6.677087       181.6928 
  95   0.0000       6.681279       181.8069 
  96   0.0000       6.681279       181.8069 
  97   0.0000       6.694150       182.1571 
  98   0.0000       6.694150       182.1571 
  99   0.0000       6.708665       182.5521 
 100   0.0000       6.708665       182.5521 
 101   0.0000       6.719672       182.8516 
 102   0.0000       6.719673       182.8516 
 103   0.0000       6.723695       182.9610 

                 SPIN DOWN ORBITALS
  NO   OCC          E(Eh)            E(eV) 
   0   1.0000    -784.986753    -21360.5755 
   1   1.0000    -109.946941     -2991.8084 
   2   1.0000     -98.807439     -2688.6871 
   3   1.0000     -98.807439     -2688.6871 
   4   1.0000     -98.805440     -2688.6327 
   5   1.0000     -18.992491      -516.8120 
   6   1.0000     -15.278772      -415.7565 
   7   1.0000     -15.278771      -415.7565 
   8   1.0000     -15.273182      -415.6044 
   9   1.0000      -9.121765      -248.2159 
  10   1.0000      -9.121765      -248.2159 
  11   1.0000      -9.117567      -248.1016 
  12   1.0000      -9.117567      -248.1016 
  13   1.0000      -9.116937      -248.0845 
  14   1.0000      -2.549712       -69.3812 
  15   1.0000      -1.531410       -41.6718 
  16   1.0000      -1.531410       -41.6718 
  17   1.0000      -1.517352       -41.2893 
  18   1.0000      -0.128819        -3.5054 
  19   0.0000      -0.116425        -3.1681 
  20   0.0000      -0.116414        -3.1678 
  21   0.0000      -0.111781        -3.0417 
  22   0.0000      -0.105659        -2.8751 
  23   0.0000      -0.105659        -2.8751 
  24   0.0000      -0.017633        -0.4798 
  25   0.0000       0.000862         0.0235 
  26   0.0000       0.000863         0.0235 
  27   0.0000       0.059209         1.6112 
  28   0.0000       0.163596         4.4517 
  29   0.0000       0.163596         4.4517 
  30   0.0000       0.164727         4.4825 
  31   0.0000       0.176418         4.8006 
  32   0.0000       0.176443         4.8013 
  33   0.0000       0.244747         6.6599 
  34   0.0000       0.256415         6.9774 
  35   0.0000       0.256416         6.9774 
  36   0.0000       0.589454        16.0399 
  37   0.0000       0.591642        16.0994 
  38   0.0000       0.591643        16.0994 
  39   0.0000       0.601767        16.3749 
  40   0.0000       0.601780        16.3753 
  41   0.0000       0.607133        16.5209 
  42   0.0000       0.607133        16.5209 
  43   0.0000       0.622593        16.9416 
  44   0.0000       0.998544        27.1718 
  45   0.0000       1.007930        27.4272 
  46   0.0000       1.007947        27.4276 
  47   0.0000       1.011256        27.5177 
  48   0.0000       1.011257        27.5177 
  49   0.0000       1.592842        43.3434 
  50   0.0000       1.597349        43.4661 
  51   0.0000       1.597350        43.4661 
  52   0.0000       1.709679        46.5227 
  53   0.0000       1.709679        46.5227 
  54   0.0000       1.711461        46.5712 
  55   0.0000       1.713529        46.6275 
  56   0.0000       1.713529        46.6275 
  57   0.0000       1.722814        46.8802 
  58   0.0000       1.722820        46.8803 
  59   0.0000       1.919799        52.2404 
  60   0.0000       1.919799        52.2404 
  61   0.0000       1.922277        52.3078 
  62   0.0000       1.928350        52.4731 
  63   0.0000       1.928364        52.4735 
  64   0.0000       1.930387        52.5285 
  65   0.0000       1.930408        52.5291 
  66   0.0000       1.938431        52.7474 
  67   0.0000       1.938431        52.7474 
  68   0.0000       3.795164       103.2717 
  69   0.0000       3.797228       103.3278 
  70   0.0000       3.797249       103.3284 
  71   0.0000       3.804914       103.5370 
  72   0.0000       3.804915       103.5370 
  73   0.0000       3.816129       103.8422 
  74   0.0000       4.548131       123.7609 
  75   0.0000       4.548131       123.7609 
  76   0.0000       4.555532       123.9623 
  77   0.0000       4.557552       124.0173 
  78   0.0000       4.557553       124.0173 
  79   0.0000       4.560974       124.1104 
  80   0.0000       4.560977       124.1105 
  81   0.0000       5.839457       158.8997 
  82   0.0000       5.839462       158.8998 
  83   0.0000       5.852877       159.2649 
  84   0.0000       5.852877       159.2649 
  85   0.0000       5.853470       159.2810 
  86   0.0000       5.857192       159.3823 
  87   0.0000       5.857199       159.3825 
  88   0.0000       5.857494       159.3905 
  89   0.0000       5.857494       159.3905 
  90   0.0000       6.406616       174.3329 
  91   0.0000       6.406617       174.3329 
  92   0.0000       6.411725       174.4719 
  93   0.0000       6.815087       185.4479 
  94   0.0000       6.815087       185.4479 
  95   0.0000       6.827253       185.7790 
  96   0.0000       6.827908       185.7968 
  97   0.0000       6.827908       185.7968 
  98   0.0000       6.830641       185.8712 
  99   0.0000       6.830641       185.8712 
 100   0.0000       6.835224       185.9959 
 101   0.0000       6.835224       185.9959 
 102   0.0000       6.837239       186.0507 
 103   0.0000       6.837239       186.0507 

                    ********************************
                    * MULLIKEN POPULATION ANALYSIS *
                    ********************************

--------------------------------------------
MULLIKEN ATOMIC CHARGES AND SPIN POPULATIONS
--------------------------------------------
   0 Tc:   -0.000000    5.000000
Sum of atomic charges         :   -0.0000000
Sum of atomic spin populations:    5.0000000

-----------------------------------------------------
MULLIKEN REDUCED ORBITAL CHARGES AND SPIN POPULATIONS
-----------------------------------------------------
CHARGE
  0 Tcs       :     9.312883  s :     9.312883
      pz      :     5.999961  p :    17.999786
      px      :     5.999961
      py      :     5.999863
      dz2     :     3.171696  d :    15.686616
      dxz     :     2.999977
      dyz     :     2.999887
      dx2y2   :     3.515170
      dxy     :     2.999886
      f0      :     0.000014  f :     0.000206
      f+1     :     0.000002
      f-1     :     0.000050
      f+2     :     0.000023
      f-2     :     0.000000
      f+3     :     0.000034
      f-3     :     0.000084
      g0      :     0.000039  g :     0.000501
      g+1     :     0.000003
      g-1     :     0.000065
      g+2     :     0.000076
      g-2     :     0.000014
      g+3     :     0.000020
      g-3     :     0.000050
      g+4     :     0.000133
      g-4     :     0.000101
      h0      :     0.000001  h :     0.000008
      h+1     :     0.000000
      h-1     :     0.000001
      h+2     :     0.000001
      h-2     :     0.000000
      h+3     :     0.000000
      h-3     :     0.000001
      h+4     :     0.000001
      h-4     :     0.000000
      h+5     :     0.000002
      h-5     :     0.000001

SPIN
  0 Tcs       :     0.688534  s :     0.688534
      pz      :    -0.000001  p :    -0.000123
      px      :    -0.000001
      py      :    -0.000121
      dz2     :     0.827818  d :     4.311028
      dxz     :     0.999977
      dyz     :     0.999883
      dx2y2   :     0.483465
      dxy     :     0.999884
      f0      :     0.000001  f :     0.000124
      f+1     :     0.000000
      f-1     :     0.000045
      f+2     :     0.000001
      f-2     :     0.000000
      f+3     :     0.000002
      f-3     :     0.000075
      g0      :     0.000030  g :     0.000438
      g+1     :     0.000003
      g-1     :     0.000065
      g+2     :     0.000057
      g-2     :     0.000014
      g+3     :     0.000020
      g-3     :     0.000050
      g+4     :     0.000099
      g-4     :     0.000101
      h0      :    -0.000000  h :    -0.000001
      h+1     :    -0.000000
      h-1     :     0.000000
      h+2     :    -0.000000
      h-2     :    -0.000000
      h+3     :    -0.000000
      h-3     :     0.000000
      h+4     :    -0.000000
      h-4     :    -0.000000
      h+5     :    -0.000000
      h-5     :     0.000000


                     *******************************
                     * LOEWDIN POPULATION ANALYSIS *
                     *******************************

-------------------------------------------
LOEWDIN ATOMIC CHARGES AND SPIN POPULATIONS
-------------------------------------------
   0 Tc:    0.000000    5.000000

----------------------------------------------------
LOEWDIN REDUCED ORBITAL CHARGES AND SPIN POPULATIONS
----------------------------------------------------
CHARGE
  0 Tcs       :     9.312883  s :     9.312883
      pz      :     5.999961  p :    17.999786
      px      :     5.999961
      py      :     5.999863
      dz2     :     3.171696  d :    15.686616
      dxz     :     2.999977
      dyz     :     2.999887
      dx2y2   :     3.515170
      dxy     :     2.999886
      f0      :     0.000014  f :     0.000206
      f+1     :     0.000002
      f-1     :     0.000050
      f+2     :     0.000023
      f-2     :     0.000000
      f+3     :     0.000034
      f-3     :     0.000084
      g0      :     0.000039  g :     0.000501
      g+1     :     0.000003
      g-1     :     0.000065
      g+2     :     0.000076
      g-2     :     0.000014
      g+3     :     0.000020
      g-3     :     0.000050
      g+4     :     0.000133
      g-4     :     0.000101
      h0      :     0.000001  h :     0.000008
      h+1     :     0.000000
      h-1     :     0.000001
      h+2     :     0.000001
      h-2     :     0.000000
      h+3     :     0.000000
      h-3     :     0.000001
      h+4     :     0.000001
      h-4     :     0.000000
      h+5     :     0.000002
      h-5     :     0.000001

SPIN
  0 Tcs       :     0.688534  s :     0.688534
      pz      :    -0.000001  p :    -0.000123
      px      :    -0.000001
      py      :    -0.000121
      dz2     :     0.827818  d :     4.311028
      dxz     :     0.999977
      dyz     :     0.999883
      dx2y2   :     0.483465
      dxy     :     0.999884
      f0      :     0.000001  f :     0.000124
      f+1     :     0.000000
      f-1     :     0.000045
      f+2     :     0.000001
      f-2     :     0.000000
      f+3     :     0.000002
      f-3     :     0.000075
      g0      :     0.000030  g :     0.000438
      g+1     :     0.000003
      g-1     :     0.000065
      g+2     :     0.000057
      g-2     :     0.000014
      g+3     :     0.000020
      g-3     :     0.000050
      g+4     :     0.000099
      g-4     :     0.000101
      h0      :    -0.000000  h :    -0.000001
      h+1     :    -0.000000
      h-1     :     0.000000
      h+2     :    -0.000000
      h-2     :    -0.000000
      h+3     :    -0.000000
      h-3     :     0.000000
      h+4     :    -0.000000
      h-4     :    -0.000000
      h+5     :    -0.000000
      h-5     :     0.000000


                      *****************************
                      * MAYER POPULATION ANALYSIS *
                      *****************************

  NA   - Mulliken gross atomic population
  ZA   - Total nuclear charge
  QA   - Mulliken gross atomic charge
  VA   - Mayer's total valence
  BVA  - Mayer's bonded valence
  FA   - Mayer's free valence

  ATOM       NA         ZA         QA         VA         BVA        FA
  0 Tc    43.0000    43.0000     0.0000     5.0149     0.0000     5.0149

  Mayer bond orders larger than 0.100000


-------
TIMINGS
-------

Total SCF time: 0 days 0 hours 0 min 30 sec 

Total time                  ....      30.452 sec
Sum of individual times     ....      30.120 sec  ( 98.9%)

Fock matrix formation       ....      27.002 sec  ( 88.7%)
  XC integration            ....       2.857 sec  ( 10.6% of F)
    Basis function eval.    ....       0.727 sec  ( 25.4% of XC)
    Density eval.           ....       0.381 sec  ( 13.3% of XC)
    XC-Functional eval.     ....       0.139 sec  (  4.9% of XC)
    XC-Potential eval.      ....       0.742 sec  ( 26.0% of XC)
Diagonalization             ....       0.177 sec  (  0.6%)
Density matrix formation    ....       0.008 sec  (  0.0%)
Population analysis         ....       0.023 sec  (  0.1%)
Initial guess               ....       0.004 sec  (  0.0%)
Orbital Transformation      ....       0.000 sec  (  0.0%)
Orbital Orthonormalization  ....       0.002 sec  (  0.0%)
DIIS solution               ....       0.142 sec  (  0.5%)
Grid generation             ....       2.764 sec  (  9.1%)

Maximum memory used throughout the entire SCF-calculation: 246.2 MB

-------------------------   --------------------
FINAL SINGLE POINT ENERGY     -4335.932757133431
-------------------------   --------------------


                            ***************************************
                            *     ORCA property calculations      *
                            ***************************************

                                    ---------------------
                                    Active property flags
                                    ---------------------
   (+) Dipole Moment


------------------------------------------------------------------------------
                       ORCA ELECTRIC PROPERTIES CALCULATION
------------------------------------------------------------------------------

Dipole Moment Calculation                       ... on
Quadrupole Moment Calculation                   ... off
Polarizability Calculation                      ... off
GBWName                                         ... Tc_ano-rcc-vqzp_pbe.gbw
Electron density                                ... Tc_ano-rcc-vqzp_pbe.scfp
The origin for moment calculation is the CENTER OF MASS  = ( 0.000000,  0.000000  0.000000)

-------------
DIPOLE MOMENT
-------------
                                X             Y             Z
Electronic contribution:      0.00000       0.00000      -0.00000
Nuclear contribution   :      0.00000       0.00000       0.00000
                        -----------------------------------------
Total Dipole Moment    :      0.00000       0.00000      -0.00000
                        -----------------------------------------
Magnitude (a.u.)       :      0.00000
Magnitude (Debye)      :      0.00000



--------------------
Rotational spectrum 
--------------------
 
Rotational constants in cm-1:     0.000000     0.000000     0.000000 
Rotational constants in MHz :     0.000000     0.000000     0.000000 

 Dipole components along the rotational axes: 
x,y,z [a.u.] :     0.000000     0.000001    -0.000000 
x,y,z [Debye]:     0.000000     0.000001    -0.000000 

 

Timings for individual modules:

Sum of individual times         ...       36.376 sec (=   0.606 min)
GTO integral calculation        ...        2.570 sec (=   0.043 min)   7.1 %
Relativistic integrals          ...        3.096 sec (=   0.052 min)   8.5 %
SCF iterations                  ...       30.709 sec (=   0.512 min)  84.4 %
                             ****ORCA TERMINATED NORMALLY****
TOTAL RUN TIME: 0 days 0 hours 0 minutes 37 seconds 152 msec
