
                                 *****************
                                 * O   R   C   A *
                                 *****************

                                            #,                                       
                                            ###                                      
                                            ####                                     
                                            #####                                    
                                            ######                                   
                                           ########,                                 
                                     ,,################,,,,,                         
                               ,,#################################,,                 
                          ,,##########################################,,             
                       ,#########################################, ''#####,          
                    ,#############################################,,   '####,        
                  ,##################################################,,,,####,       
                ,###########''''           ''''###############################       
              ,#####''   ,,,,##########,,,,          '''####'''          '####       
            ,##' ,,,,###########################,,,                        '##       
           ' ,,###''''                  '''############,,,                           
         ,,##''                                '''############,,,,        ,,,,,,###''
      ,#''                                            '''#######################'''  
     '                                                          ''''####''''         
             ,#######,   #######,   ,#######,      ##                                
            ,#'     '#,  ##    ##  ,#'     '#,    #''#        ######   ,####,        
            ##       ##  ##   ,#'  ##            #'  '#       #        #'  '#        
            ##       ##  #######   ##           ,######,      #####,   #    #        
            '#,     ,#'  ##    ##  '#,     ,#' ,#      #,         ##   #,  ,#        
             '#######'   ##     ##  '#######'  #'      '#     #####' # '####'        



                  #######################################################
                  #                        -***-                        #
                  #          Department of theory and spectroscopy      #
                  #    Directorship and core code : Frank Neese         #
                  #        Max Planck Institute fuer Kohlenforschung    #
                  #                Kaiser Wilhelm Platz 1               #
                  #                 D-45470 Muelheim/Ruhr               #
                  #                      Germany                        #
                  #                                                     #
                  #                  All rights reserved                #
                  #                        -***-                        #
                  #######################################################


                         Program Version 5.0.1 -  RELEASE  -


 With contributions from (in alphabetic order):
   Daniel Aravena         : Magnetic Suceptibility
   Michael Atanasov       : Ab Initio Ligand Field Theory (pilot matlab implementation)
   Alexander A. Auer      : GIAO ZORA, VPT2 properties, NMR spectrum
   Ute Becker             : Parallelization
   Giovanni Bistoni       : ED, misc. LED, open-shell LED, HFLD
   Martin Brehm           : Molecular dynamics
   Dmytro Bykov           : SCF Hessian
   Vijay G. Chilkuri      : MRCI spin determinant printing, contributions to CSF-ICE
   Dipayan Datta          : RHF DLPNO-CCSD density
   Achintya Kumar Dutta   : EOM-CC, STEOM-CC
   Dmitry Ganyushin       : Spin-Orbit,Spin-Spin,Magnetic field MRCI
   Miquel Garcia          : C-PCM and meta-GGA Hessian, CC/C-PCM, Gaussian charge scheme
   Yang Guo               : DLPNO-NEVPT2, F12-NEVPT2, CIM, IAO-localization
   Andreas Hansen         : Spin unrestricted coupled pair/coupled cluster methods
   Benjamin Helmich-Paris : MC-RPA, TRAH-SCF, COSX integrals
   Lee Huntington         : MR-EOM, pCC
   Robert Izsak           : Overlap fitted RIJCOSX, COSX-SCS-MP3, EOM
   Marcus Kettner         : VPT2
   Christian Kollmar      : KDIIS, OOCD, Brueckner-CCSD(T), CCSD density, CASPT2, CASPT2-K
   Simone Kossmann        : Meta GGA functionals, TD-DFT gradient, OOMP2, MP2 Hessian
   Martin Krupicka        : Initial AUTO-CI
   Lucas Lang             : DCDCAS
   Marvin Lechner         : AUTO-CI (C++ implementation), FIC-MRCC
   Dagmar Lenk            : GEPOL surface, SMD
   Dimitrios Liakos       : Extrapolation schemes; Compound Job, initial MDCI parallelization
   Dimitrios Manganas     : Further ROCIS development; embedding schemes
   Dimitrios Pantazis     : SARC Basis sets
   Anastasios Papadopoulos: AUTO-CI, single reference methods and gradients
   Taras Petrenko         : DFT Hessian,TD-DFT gradient, ASA, ECA, R-Raman, ABS, FL, XAS/XES, NRVS
   Peter Pinski           : DLPNO-MP2, DLPNO-MP2 Gradient
   Christoph Reimann      : Effective Core Potentials
   Marius Retegan         : Local ZFS, SOC
   Christoph Riplinger    : Optimizer, TS searches, QM/MM, DLPNO-CCSD(T), (RO)-DLPNO pert. Triples
   Tobias Risthaus        : Range-separated hybrids, TD-DFT gradient, RPA, STAB
   Michael Roemelt        : Original ROCIS implementation
   Masaaki Saitow         : Open-shell DLPNO-CCSD energy and density
   Barbara Sandhoefer     : DKH picture change effects
   Avijit Sen             : IP-ROCIS
   Kantharuban Sivalingam : CASSCF convergence, NEVPT2, FIC-MRCI
   Bernardo de Souza      : ESD, SOC TD-DFT
   Georgi Stoychev        : AutoAux, RI-MP2 NMR, DLPNO-MP2 response
   Willem Van den Heuvel  : Paramagnetic NMR
   Boris Wezisla          : Elementary symmetry handling
   Frank Wennmohs         : Technical directorship


 We gratefully acknowledge several colleagues who have allowed us to
 interface, adapt or use parts of their codes:
   Stefan Grimme, W. Hujo, H. Kruse, P. Pracht,  : VdW corrections, initial TS optimization,
                  C. Bannwarth, S. Ehlert          DFT functionals, gCP, sTDA/sTD-DF
   Ed Valeev, F. Pavosevic, A. Kumar             : LibInt (2-el integral package), F12 methods
   Garnet Chan, S. Sharma, J. Yang, R. Olivares  : DMRG
   Ulf Ekstrom                                   : XCFun DFT Library
   Mihaly Kallay                                 : mrcc  (arbitrary order and MRCC methods)
   Jiri Pittner, Ondrej Demel                    : Mk-CCSD
   Frank Weinhold                                : gennbo (NPA and NBO analysis)
   Christopher J. Cramer and Donald G. Truhlar   : smd solvation model
   Lars Goerigk                                  : TD-DFT with DH, B97 family of functionals
   V. Asgeirsson, H. Jonsson                     : NEB implementation
   FAccTs GmbH                                   : IRC, NEB, NEB-TS, DLPNO-Multilevel, CI-OPT
                                                   MM, QMMM, 2- and 3-layer-ONIOM, Crystal-QMMM,
                                                   LR-CPCM, SF, NACMEs, symmetry and pop. for TD-DFT,
                                                   nearIR, NL-DFT gradient (VV10), updates on ESD,
                                                   ML-optimized integration grids
   S Lehtola, MJT Oliveira, MAL Marques          : LibXC Library
   Liviu Ungur et al                             : ANISO software


 Your calculation uses the libint2 library for the computation of 2-el integrals
 For citations please refer to: http://libint.valeyev.net

 Your ORCA version has been built with support for libXC version: 5.1.0
 For citations please refer to: https://tddft.org/programs/libxc/

 This ORCA versions uses:
   CBLAS   interface :  Fast vector & matrix operations
   LAPACKE interface :  Fast linear algebra routines
   SCALAPACK package :  Parallel linear algebra routines
   Shared memory     :  Shared parallel matrices
   BLAS/LAPACK       :  OpenBLAS 0.3.15  USE64BITINT DYNAMIC_ARCH NO_AFFINITY Haswell SINGLE_THREADED
        Core in use  :  Haswell
   Copyright (c) 2011-2014, The OpenBLAS Project


SCAN-COORDS

Reading of a custom basis requested
Basis file         : Tc_ano-r3.basis
READING GTO-BASIS: TECHNETIUM
Basis successfully read

================================================================================

----- Orbital basis set information -----
================================================================================
                                        WARNINGS
                       Please study these warnings very carefully!
================================================================================


INFO   : the flag for use of the SHARK integral package has been found!

================================================================================
                                       INPUT FILE
================================================================================
NAME = Tc_ano-r3_pbe.inp
|  1> !uks pbe nori verytightscf soscf notrah defgrid3
|  2> 
|  3> %pal
|  4>   nprocs 32
|  5> end
|  6> %coords
|  7>   charge 0
|  8>   mult 6
|  9>   units bohrs
| 10>   coords
| 11>     Tc 0.0 0.0 0.0
| 12>   end
| 13> end
| 14> %basis
| 15>   gtoname "Tc_ano-r3.basis"
| 16>   delECP Tc
| 17> end
| 18> %rel
| 19>   method zora
| 20>   modelpot 1, 0, 0, 0
| 21>   c 137.035999084
| 22> endd                         ****END OF INPUT****
================================================================================

                       ****************************
                       * Single Point Calculation *
                       ****************************

---------------------------------
CARTESIAN COORDINATES (ANGSTROEM)
---------------------------------
  Tc     0.000000    0.000000    0.000000

----------------------------
CARTESIAN COORDINATES (A.U.)
----------------------------
  NO LB      ZA    FRAG     MASS         X           Y           Z
   0 Tc   43.0000    0    97.000    0.000000    0.000000    0.000000

--------------------------------
INTERNAL COORDINATES (ANGSTROEM)
--------------------------------
 Tc     0   0   0     0.000000000000     0.00000000     0.00000000

---------------------------
INTERNAL COORDINATES (A.U.)
---------------------------
 Tc     0   0   0     0.000000000000     0.00000000     0.00000000

---------------------
BASIS SET INFORMATION
---------------------
There are 1 groups of distinct atoms

 Group   1 Type Tc  : 184s96p60d18f8g3h contracted to 8s6p5d3f2g1h pattern {2323232323232323/161616161616/1212121212/666/44/3}

Atom   0Tc   basis set group =>   1


           ************************************************************
           *        Program running with 32 parallel MPI-processes    *
           *              working on a common directory               *
           ************************************************************
------------------------------------------------------------------------------
                           ORCA GTO INTEGRAL CALCULATION
------------------------------------------------------------------------------
------------------------------------------------------------------------------
                   ___                                                        
                  /   \      - P O W E R E D   B Y -                         
                 /     \                                                     
                 |  |  |   _    _      __       _____    __    __             
                 |  |  |  | |  | |    /  \     |  _  \  |  |  /  |          
                  \  \/   | |  | |   /    \    | | | |  |  | /  /          
                 / \  \   | |__| |  /  /\  \   | |_| |  |  |/  /          
                |  |  |   |  __  | /  /__\  \  |    /   |      \           
                |  |  |   | |  | | |   __   |  |    \   |  |\   \          
                \     /   | |  | | |  |  |  |  | |\  \  |  | \   \       
                 \___/    |_|  |_| |__|  |__|  |_| \__\ |__|  \__/        
                                                                              
                      - O R C A' S   B I G   F R I E N D -                    
                                      &                                       
                       - I N T E G R A L  F E E D E R -                       
                                                                              
 v1 FN, 2020, v2 2021                                                         
------------------------------------------------------------------------------


Reading SHARK input file Tc_ano-r3_pbe.SHARKINP.tmp ... ok
----------------------
SHARK INTEGRAL PACKAGE
----------------------

Number of atoms                             ...      1
Number of basis functions                   ...    101
Number of shells                            ...     25
Maximum angular momentum                    ...      5
Integral batch strategy                     ... SHARK/LIBINT Hybrid
RI-J (if used) integral strategy            ... SPLIT-RIJ (Revised 2003 algorithm where possible)
Printlevel                                  ...      1
Contraction scheme used                     ... SEGMENTED contraction
Coulomb Range Separation                    ... NOT USED
Exchange Range Separation                   ... NOT USED
Finite Nucleus Model                        ... NOT USED
Auxiliary Coulomb fitting basis             ... NOT available
Auxiliary J/K fitting basis                 ... NOT available
Auxiliary Correlation fitting basis         ... NOT available
Auxiliary 'external' fitting basis          ... NOT available
Integral threshold                          ...     1.000000e-12
Primitive cut-off                           ...     1.000000e-14
Primitive pair pre-selection threshold      ...     1.000000e-14

Calculating pre-screening integrals         ... done ( 21.7 sec) Dimension = 25
Organizing shell pair data                  ... done (  0.4 sec)
Shell pair information
Total number of shell pairs                 ...       325
Shell pairs after pre-screening             ...       325
Total number of primitive shell pairs       ...     71399
Primitive shell pairs kept                  ...     71399
          la=0 lb=0:     36 shell pairs
          la=1 lb=0:     48 shell pairs
          la=1 lb=1:     21 shell pairs
          la=2 lb=0:     40 shell pairs
          la=2 lb=1:     30 shell pairs
          la=2 lb=2:     15 shell pairs
          la=3 lb=0:     24 shell pairs
          la=3 lb=1:     18 shell pairs
          la=3 lb=2:     15 shell pairs
          la=3 lb=3:      6 shell pairs
          la=4 lb=0:     16 shell pairs
          la=4 lb=1:     12 shell pairs
          la=4 lb=2:     10 shell pairs
          la=4 lb=3:      6 shell pairs
          la=4 lb=4:      3 shell pairs
          la=5 lb=0:      8 shell pairs
          la=5 lb=1:      6 shell pairs
          la=5 lb=2:      5 shell pairs
          la=5 lb=3:      3 shell pairs
          la=5 lb=4:      2 shell pairs
          la=5 lb=5:      1 shell pairs

Calculating one electron integrals          ... done (  0.1 sec)
Calculating Nuclear repulsion               ... done (  0.0 sec) ENN=      0.000000000000 Eh

SHARK setup successfully completed in  22.7 seconds

Maximum memory used throughout the entire GTOINT-calculation: 386.5 MB


           ************************************************************
           *        Program running with 32 parallel MPI-processes    *
           *              working on a common directory               *
           ************************************************************
------------------------------------------------------------------------------
                          ORCA RELATIVISTIC HAMILTONIAN
------------------------------------------------------------------------------

Relativistic Method            ... ZORA(MP)
Treatment of potential         ... Van Wuellen
Nucleus model                  ... Point Nucleus
Speed of light used            ... 137.03599908400000


            *************************************************
            *         ZERO ORDER REGULAR APPROXIMATION      *
            *                     ZORA(MP)                  *
            *            Programmed by FN according to      *
            *                   C. van Wuellen              *
            *       J. Chem. Phys. (1998) vol 109, 392-399  *
            *************************************************

Terms included in model potential: +V(e,N)
Basis function cutoff value   ... 1.000000e-12
Loading the fitted atomic densities  (DKH4)  ... done
Calculating the cutoffs                      ... done
Number of fit functions                      ... 28
Setting up the integration grid ... done

Maximum memory used throughout the entire REL-calculation: 23.6 MB


           ************************************************************
           *        Program running with 32 parallel MPI-processes    *
           *              working on a common directory               *
           ************************************************************
-------------------------------------------------------------------------------
                                 ORCA SCF
-------------------------------------------------------------------------------

------------
SCF SETTINGS
------------
Hamiltonian:
 Density Functional     Method          .... DFT(GTOs)
 Exchange Functional    Exchange        .... PBE
   PBE kappa parameter   XKappa         ....  0.804000
   PBE mue parameter    XMuePBE         ....  0.219520
 Correlation Functional Correlation     .... PBE
   PBE beta parameter  CBetaPBE         ....  0.066725
 LDA part of GGA corr.  LDAOpt          .... PW91-LDA
 Gradients option       PostSCFGGA      .... off
   Density functional embedding theory  .... OFF
   NL short-range parameter             ....  6.400000

Relativistic Settings:
 Scalar relativistic method             .... ZORA
 Speed of light used       Velit        ....       137.035999
Orbital energies will be scaled


General Settings:
 Integral files         IntName         .... Tc_ano-r3_pbe
 Hartree-Fock type      HFTyp           .... UHF
 Total Charge           Charge          ....    0
 Multiplicity           Mult            ....    6
 Number of Electrons    NEL             ....   43
 Basis Dimension        Dim             ....  101
 Nuclear Repulsion      ENuc            ....      0.0000000000 Eh

Convergence Acceleration:
 DIIS                   CNVDIIS         .... on
   Start iteration      DIISMaxIt       ....    12
   Startup error        DIISStart       ....  0.200000
   # of expansion vecs  DIISMaxEq       ....     5
   Bias factor          DIISBfac        ....   1.050
   Max. coefficient     DIISMaxC        ....  10.000
 Trust-Rad. Augm. Hess. CNVTRAH         .... off
 SOSCF                  CNVSOSCF        .... on
   Start iteration      SOSCFMaxIt      ....   150
   Startup grad/error   SOSCFStart      ....  0.003300
 Level Shifting         CNVShift        .... on
   Level shift para.    LevelShift      ....    0.2500
   Turn off err/grad.   ShiftErr        ....    0.0010
 Zerner damping         CNVZerner       .... off
 Static damping         CNVDamp         .... on
   Fraction old density DampFac         ....    0.7000
   Max. Damping (<1)    DampMax         ....    0.9800
   Min. Damping (>=0)   DampMin         ....    0.0000
   Turn off err/grad.   DampErr         ....    0.1000
 Fernandez-Rico         CNVRico         .... off

SCF Procedure:
 Maximum # iterations   MaxIter         ....   125
 SCF integral mode      SCFMode         .... Direct
   Integral package                     .... SHARK and LIBINT hybrid scheme
 Reset frequency        DirectResetFreq ....    20
 Integral Threshold     Thresh          ....  1.000e-12 Eh
 Primitive CutOff       TCut            ....  1.000e-14 Eh

Convergence Tolerance:
 Convergence Check Mode ConvCheckMode   .... Total+1el-Energy
 Convergence forced     ConvForced      .... 0
 Energy Change          TolE            ....  1.000e-09 Eh
 1-El. energy change                    ....  1.000e-06 Eh
 Orbital Gradient       TolG            ....  2.000e-06
 Orbital Rotation angle TolX            ....  2.000e-06
 DIIS Error             TolErr          ....  1.000e-08


Diagonalization of the overlap matrix:
Smallest eigenvalue                        ... 1.000e+00
Time for diagonalization                   ...    0.004 sec
Threshold for overlap eigenvalues          ... 1.000e-08
Number of eigenvalues below threshold      ... 0
Time for construction of square roots      ...    0.010 sec
Total time needed                          ...    0.015 sec

Time for model grid setup =    0.178 sec

------------------------------
INITIAL GUESS: MODEL POTENTIAL
------------------------------
Loading ZORA relativistic densities                ... done
Calculating cut-offs                               ... done
Initializing the effective Hamiltonian             ... done
Setting up the integral package (SHARK)            ... done
Starting the Coulomb interaction                   ... done (   0.3 sec)
Reading the grid                                   ... done
Mapping shells                                     ... done
Starting the XC term evaluation                    ... done (   0.1 sec)
  promolecular density results
     # of electrons  =     42.999999991
     EX              =   -129.672407989
     EC              =     -2.151899865
     EX+EC           =   -131.824307855
Transforming the Hamiltonian                       ... done (   0.0 sec)
Diagonalizing the Hamiltonian                      ... done (   0.0 sec)
Back transforming the eigenvectors                 ... done (   0.0 sec)
Now organizing SCF variables                       ... done
                      ------------------
                      INITIAL GUESS DONE (   0.6 sec)
                      ------------------
-------------------
DFT GRID GENERATION
-------------------

General Integration Accuracy     IntAcc      ... 4.959
Radial Grid Type                 RadialGrid  ... OptM3 with GC (2021)
Angular Grid (max. ang.)         AngularGrid ... 6 (Lebedev-590)
Angular grid pruning method      GridPruning ... 4 (adaptive)
Weight generation scheme         WeightScheme... Becke
Basis function cutoff            BFCut       ... 1.0000e-12
Integration weight cutoff        WCut        ... 1.0000e-14
Angular grids for H and He will be reduced by one unit
Partially contracted basis set               ... off
Rotationally invariant grid construction     ... off

Total number of grid points                  ...    65888
Total number of batches                      ...     1030
Average number of points per batch           ...       63
Average number of grid points per atom       ...    65888
Time for grid setup =    4.188 sec

--------------
SCF ITERATIONS
--------------
ITER       Energy         Delta-E        Max-DP      RMS-DP      [F,P]     Damp
               ***  Starting incremental Fock matrix formation  ***
  0  -4339.6623019975   0.000000000000 0.03507689  0.00065675  0.2071237 0.7000
  1  -4339.6871447269  -0.024842729402 0.02945587  0.00052324  0.1446124 0.7000
                               ***Turning on DIIS***
  2  -4339.6978790814  -0.010734354567 0.01964005  0.00027703  0.1008832 0.7000
  3  -4339.7038146027  -0.005935521254 0.02894390  0.00031089  0.0703433 0.0000
  4  -4339.7174272303  -0.013612627625 0.00517496  0.00012287  0.0208162 0.0000
  5  -4339.7179364634  -0.000509233119 0.00243144  0.00004705  0.0078163 0.0000
                      *** Initiating the SOSCF procedure ***
                           *** Shutting down DIIS ***
                      *** Re-Reading the Fockian *** 
                      *** Removing any level shift *** 
ITER      Energy       Delta-E        Grad      Rot      Max-DP    RMS-DP
  6  -4339.71805088  -0.0001144128  0.000301  0.000301  0.003100  0.000050
               *** Restarting incremental Fock matrix formation ***
  7  -4339.71805165  -0.0000007703  0.000319  0.001002  0.000734  0.000013
  8  -4339.71805125   0.0000003950  0.000376  0.000546  0.000327  0.000008
  9  -4339.71805245  -0.0000012016  0.000054  0.001128  0.000621  0.000009
 10  -4339.71805258  -0.0000001307  0.000051  0.004315  0.003245  0.000036
 11  -4339.71805312  -0.0000005379  0.000163  0.091987  0.060253  0.000754
 12  -4339.71804100   0.0000121227  0.003429  0.089960  0.061430  0.000746
 13  -4339.71805227  -0.0000112678  0.000378  0.011874  0.008833  0.000100
 14  -4339.71805232  -0.0000000511  0.000105  0.004413  0.002662  0.000035
 15  -4339.71805246  -0.0000001439  0.000045  0.001689  0.000719  0.000013
 16  -4339.71805252  -0.0000000567  0.000030  0.001430  0.000577  0.000011
 17  -4339.71805254  -0.0000000172  0.000020  0.000278  0.000253  0.000002
 18  -4339.71805253   0.0000000019  0.000011  0.000445  0.000296  0.000004
 19  -4339.71805253   0.0000000000  0.000006  0.000922  0.000599  0.000008
 20  -4339.71805253  -0.0000000000  0.000017  0.000423  0.000272  0.000004
 21  -4339.71805253  -0.0000000000  0.000012  0.000281  0.000190  0.000002
 22  -4339.71805253  -0.0000000001  0.000016  0.000777  0.000517  0.000007
 23  -4339.71805253   0.0000000002  0.000005  0.000056  0.000040  0.000000
 24  -4339.71805253   0.0000000000  0.000005  0.000359  0.000246  0.000003
 25  -4339.71805253   0.0000000003  0.000003  0.000363  0.000251  0.000003
 26  -4339.71805253   0.0000000005  0.000007  0.000739  0.000508  0.000006
               *** Restarting incremental Fock matrix formation ***
 27  -4339.71805253   0.0000000016  0.000016  0.001177  0.000810  0.000011
 28  -4339.71805253   0.0000000041  0.000033  0.002187  0.001673  0.000027
 29  -4339.71805252   0.0000000114  0.000063  0.005446  0.003991  0.000065
 30  -4339.71805249   0.0000000284  0.000117  0.010275  0.006844  0.000116
 31  -4339.71805243   0.0000000553  0.000188  0.016946  0.011479  0.000185
 32  -4339.71805230   0.0000001352  0.000262  0.046893  0.033994  0.000492
 33  -4339.71805171   0.0000005825  0.000420  2.143711  0.499626  0.007196
 34  -4339.66492921   0.0531225027  0.078676  2.143460  0.500493  0.007200
 35  -4339.71805169  -0.0531224808  0.000438  0.013674  0.008984  0.000110
 36  -4339.71805175  -0.0000000550  0.000208  0.013407  0.008859  0.000108
 37  -4339.71805171   0.0000000418  0.000454  0.007902  0.005227  0.000064
 38  -4339.71805172  -0.0000000168  0.000280  0.005451  0.003679  0.000044
 39  -4339.71805176  -0.0000000378  0.000405  0.002515  0.002163  0.000023
 40  -4339.71805144   0.0000003228  0.000313  0.262543  0.248873  0.002636
 41  -4339.71769133   0.0003601085  0.015943  0.289243  0.272112  0.002853
 42  -4339.71805281  -0.0003614835  0.001956  0.041438  0.036226  0.000385
 43  -4339.71805126   0.0000015481  0.000362  0.014811  0.012849  0.000136
 44  -4339.71805201  -0.0000007464  0.000909  0.003255  0.003141  0.000033
 45  -4339.71805163   0.0000003847  0.000798  0.006313  0.004466  0.000071
 46  -4339.71804787   0.0000037541  0.000737  0.005840  0.005814  0.000085
               *** Restarting incremental Fock matrix formation ***
 47  -4339.71805191  -0.0000040373  0.000171  0.002450  0.002232  0.000024
 48  -4339.71805198  -0.0000000676  0.000047  0.001684  0.001239  0.000015
 49  -4339.71805200  -0.0000000217  0.000049  0.598860  0.336206  0.004734
 50  -4339.71618014   0.0018718622  0.016906  0.599655  0.336712  0.004739
 51  -4339.71805202  -0.0018718822  0.000043  0.000505  0.000395  0.000005
 52  -4339.71805203  -0.0000000094  0.000037  0.002378  0.001787  0.000022
 53  -4339.71805204  -0.0000000125  0.000080  0.000383  0.000382  0.000005
 54  -4339.71805203   0.0000000053  0.000065  0.001713  0.001660  0.000023
 55  -4339.71805206  -0.0000000233  0.000119  0.001846  0.001772  0.000025
 56  -4339.71805209  -0.0000000290  0.000179  0.026925  0.025887  0.000375
 57  -4339.71805229  -0.0000002002  0.001118  0.003525  0.003101  0.000038
 58  -4339.71805279  -0.0000005059  0.000975  0.058183  0.052567  0.000750
 59  -4339.71806836  -0.0000155689  0.002245  0.092337  0.083007  0.001208
 60  -4339.71805134   0.0000170184  0.000271  0.005325  0.005654  0.000064
 61  -4339.71805217  -0.0000008248  0.000138  0.010499  0.010583  0.000140
 62  -4339.71805203   0.0000001384  0.000133  0.003801  0.003665  0.000050
 63  -4339.71805201   0.0000000242  0.000008  0.000123  0.000108  0.000001
 64  -4339.71805201  -0.0000000004  0.000008  0.007832  0.006586  0.000091
 65  -4339.71805191   0.0000000918  0.000340  0.007628  0.006288  0.000088
 66  -4339.71805201  -0.0000000927  0.000006  0.000066  0.000045  0.000001
               *** Restarting incremental Fock matrix formation ***
 67  -4339.71805201  -0.0000000004  0.000006  0.000372  0.000283  0.000004
 68  -4339.71805201  -0.0000000014  0.000012  0.001779  0.001388  0.000020
 69  -4339.71805201  -0.0000000050  0.000026  0.005009  0.003992  0.000057
 70  -4339.71805203  -0.0000000121  0.000047  0.014959  0.012279  0.000167
 71  -4339.71805206  -0.0000000320  0.000083  0.030833  0.026658  0.000337
 72  -4339.71805206  -0.0000000068  0.000100  0.015520  0.013527  0.000172
 73  -4339.71805210  -0.0000000321  0.000030  0.005402  0.004690  0.000058
 74  -4339.71805210  -0.0000000073  0.000012  0.004849  0.004240  0.000052
 75  -4339.71805211  -0.0000000015  0.000004  0.001038  0.000929  0.000011
 76  -4339.71805211  -0.0000000001  0.000002  0.000068  0.000035  0.000001
 77  -4339.71805211  -0.0000000001  0.000002  0.001818  0.001207  0.000017
 78  -4339.71805211  -0.0000000006  0.000004  0.002981  0.002087  0.000028
 79  -4339.71805211  -0.0000000007  0.000006  0.010150  0.007278  0.000096
 80  -4339.71805211  -0.0000000025  0.000009  0.058146  0.043172  0.000538
 81  -4339.71805182   0.0000002886  0.000201  0.056492  0.042344  0.000524
 82  -4339.71805211  -0.0000002897  0.000009  0.001184  0.000659  0.000010
 83  -4339.71805211  -0.0000000007  0.000008  0.308277  0.203275  0.002447
 84  -4339.71792385   0.0001282668  0.003287  0.308116  0.203398  0.002446
 85  -4339.71805211  -0.0001282676  0.000007  0.000469  0.000357  0.000004
 86  -4339.71805211  -0.0000000008  0.000008  0.132365  0.089587  0.001155
               *** Restarting incremental Fock matrix formation ***
 87  -4339.71805068   0.0000014313  0.000600  0.139989  0.095347  0.001218
 88  -4339.71805212  -0.0000014428  0.000019  0.005180  0.004006  0.000044
 89  -4339.71805214  -0.0000000102  0.000019  1.003963  0.602786  0.006389
 90  -4339.71491950   0.0031326399  0.023701  1.003260  0.602441  0.006388
 91  -4339.71805214  -0.0031326418  0.000012  0.000853  0.000847  0.000009
 92  -4339.71805214   0.0000000011  0.000032  0.000729  0.000674  0.000008
 93  -4339.71805214  -0.0000000014  0.000009  0.000143  0.000108  0.000001
 94  -4339.71805214  -0.0000000009  0.000006  0.000363  0.000268  0.000003
 95  -4339.71805214  -0.0000000007  0.000005  0.000677  0.000496  0.000006
 96  -4339.71805214  -0.0000000010  0.000012  0.002418  0.001760  0.000020
 97  -4339.71805214  -0.0000000026  0.000026  0.005393  0.003953  0.000044
 98  -4339.71805215  -0.0000000055  0.000043  0.012193  0.009071  0.000100
 99  -4339.71805216  -0.0000000112  0.000060  0.018409  0.014022  0.000149
100  -4339.71805217  -0.0000000151  0.000071  0.009797  0.007693  0.000079
101  -4339.71805220  -0.0000000232  0.000066  0.010425  0.008593  0.000086
102  -4339.71805224  -0.0000000387  0.000065  0.013288  0.010755  0.000107
103  -4339.71805225  -0.0000000101  0.000065  0.000966  0.001060  0.000010
104  -4339.71805226  -0.0000000179  0.000043  0.006603  0.005893  0.000056
105  -4339.71805228  -0.0000000186  0.000016  0.003356  0.002751  0.000027
106  -4339.71805229  -0.0000000026  0.000011  0.005760  0.004577  0.000045
               *** Restarting incremental Fock matrix formation ***
107  -4339.71805229  -0.0000000023  0.000003  0.001021  0.000716  0.000008
108  -4339.71805229  -0.0000000003  0.000002  0.001352  0.000866  0.000011
109  -4339.71805229  -0.0000000004  0.000005  0.002099  0.001521  0.000019
110  -4339.71805229  -0.0000000008  0.000010  0.004190  0.003474  0.000043
111  -4339.71805229  -0.0000000019  0.000018  0.005609  0.005371  0.000065
112  -4339.71805229  -0.0000000029  0.000026  0.006627  0.004767  0.000062
113  -4339.71805230  -0.0000000042  0.000027  0.010482  0.005627  0.000090
114  -4339.71805231  -0.0000000074  0.000017  0.004974  0.003290  0.000046
115  -4339.71805231  -0.0000000027  0.000008  0.004285  0.002913  0.000038
116  -4339.71805231  -0.0000000007  0.000005  0.002182  0.001864  0.000024
117  -4339.71805231  -0.0000000004  0.000004  0.001177  0.001094  0.000014
118  -4339.71805231  -0.0000000001  0.000003  0.002113  0.001462  0.000020
119  -4339.71805231  -0.0000000001  0.000002  0.000342  0.000219  0.000003
                 **** Energy Check signals convergence ****
              ***Rediagonalizing the Fockian in SOSCF/NRSCF***

               *****************************************************
               *                     SUCCESS                       *
               *           SCF CONVERGED AFTER 120 CYCLES          *
               *****************************************************


----------------
TOTAL SCF ENERGY
----------------

Total Energy       :        -4339.71805231 Eh         -118089.73177 eV

Components:
Nuclear Repulsion  :            0.00000000 Eh               0.00000 eV
Electronic Energy  :        -4339.71805231 Eh         -118089.73177 eV
One Electron Energy:        -5967.32786609 Eh         -162379.24644 eV
Two Electron Energy:         1627.60981378 Eh           44289.51467 eV

Virial components:
Potential Energy   :        -8887.12443617 Eh         -241830.95036 eV
Kinetic Energy     :         4547.40638386 Eh          123741.21859 eV
Virial Ratio       :            1.95432818


DFT components:
N(Alpha)           :       23.999999996904 electrons
N(Beta)            :       18.999999997282 electrons
N(Total)           :       42.999999994186 electrons
E(X)               :     -127.406259450395 Eh       
E(C)               :       -2.154007561558 Eh       
E(XC)              :     -129.560267011953 Eh       
DFET-embed. en.    :        0.000000000000 Eh       

---------------
SCF CONVERGENCE
---------------

  Last Energy change         ...    0.0000e+00  Tolerance :   1.0000e-09
  Last MAX-Density change    ...    2.1857e-04  Tolerance :   1.0000e-08
  Last RMS-Density change    ...    2.7641e-06  Tolerance :   1.0000e-09
  Last Orbital Gradient      ...    8.6096e-07  Tolerance :   2.0000e-06
  Last Orbital Rotation      ...    2.5937e-04  Tolerance :   2.0000e-06

             **** THE GBW FILE WAS UPDATED (Tc_ano-r3_pbe.gbw) ****
             **** DENSITY Tc_ano-r3_pbe.scfp WAS UPDATED ****
             **** ENERGY FILE WAS UPDATED (Tc_ano-r3_pbe.en.tmp) ****
----------------------
UHF SPIN CONTAMINATION
----------------------

Warning: in a DFT calculation there is little theoretical justification to 
         calculate <S**2> as in Hartree-Fock theory. We will do it anyways
         but you should keep in mind that the values have only limited relevance

Expectation value of <S**2>     :     8.751174
Ideal value S*(S+1) for S=2.5   :     8.750000
Deviation                       :     0.001174

             **** THE GBW FILE WAS UPDATED (Tc_ano-r3_pbe.gbw) ****
             **** DENSITY Tc_ano-r3_pbe.scfp WAS UPDATED ****
----------------
ORBITAL ENERGIES
----------------
                 SPIN UP ORBITALS
  NO   OCC          E(Eh)            E(eV) 
   0   1.0000    -786.629900    -21405.2878 
   1   1.0000    -110.085649     -2995.5828 
   2   1.0000     -98.773113     -2687.7530 
   3   1.0000     -98.765450     -2687.5445 
   4   1.0000     -98.765450     -2687.5445 
   5   1.0000     -18.987940      -516.6881 
   6   1.0000     -15.252642      -415.0455 
   7   1.0000     -15.237505      -414.6336 
   8   1.0000     -15.237504      -414.6336 
   9   1.0000      -9.095858      -247.5109 
  10   1.0000      -9.093279      -247.4407 
  11   1.0000      -9.093278      -247.4407 
  12   1.0000      -9.085545      -247.2302 
  13   1.0000      -9.077720      -247.0173 
  14   1.0000      -2.608927       -70.9925 
  15   1.0000      -1.616726       -43.9933 
  16   1.0000      -1.578248       -42.9463 
  17   1.0000      -1.578245       -42.9462 
  18   1.0000      -0.207485        -5.6460 
  19   1.0000      -0.201600        -5.4858 
  20   1.0000      -0.201598        -5.4858 
  21   1.0000      -0.188207        -5.1214 
  22   1.0000      -0.169398        -4.6096 
  23   1.0000      -0.162941        -4.4338 
  24   0.0000       0.008635         0.2350 
  25   0.0000       0.022502         0.6123 
  26   0.0000       0.022504         0.6124 
  27   0.0000       0.090059         2.4506 
  28   0.0000       0.210301         5.7226 
  29   0.0000       0.211905         5.7662 
  30   0.0000       0.211905         5.7662 
  31   0.0000       0.217743         5.9251 
  32   0.0000       0.222495         6.0544 
  33   0.0000       0.558134        15.1876 
  34   0.0000       0.559397        15.2220 
  35   0.0000       0.559398        15.2220 
  36   0.0000       0.562055        15.2943 
  37   0.0000       0.567453        15.4412 
  38   0.0000       0.576248        15.6805 
  39   0.0000       0.576248        15.6805 
  40   0.0000       1.034798        28.1583 
  41   0.0000       1.053578        28.6693 
  42   0.0000       1.059920        28.8419 
  43   0.0000       1.059922        28.8420 
  44   0.0000       1.338894        36.4332 
  45   0.0000       1.341963        36.5167 
  46   0.0000       1.341964        36.5167 
  47   0.0000       1.352680        36.8083 
  48   0.0000       1.371042        37.3080 
  49   0.0000       1.692906        46.0663 
  50   0.0000       1.694188        46.1012 
  51   0.0000       1.694188        46.1012 
  52   0.0000       1.696556        46.1656 
  53   0.0000       1.713896        46.6375 
  54   0.0000       1.729006        47.0486 
  55   0.0000       1.729007        47.0487 
  56   0.0000       1.857425        50.5431 
  57   0.0000       1.857937        50.5570 
  58   0.0000       1.857938        50.5571 
  59   0.0000       1.858663        50.5768 
  60   0.0000       1.868367        50.8408 
  61   0.0000       1.872924        50.9648 
  62   0.0000       1.872925        50.9649 
  63   0.0000       1.885238        51.2999 
  64   0.0000       1.886649        51.3383 
  65   0.0000       4.497944       122.3953 
  66   0.0000       4.499194       122.4293 
  67   0.0000       4.499195       122.4293 
  68   0.0000       4.501511       122.4924 
  69   0.0000       4.517797       122.9355 
  70   0.0000       4.531900       123.3193 
  71   0.0000       4.531901       123.3193 
  72   0.0000       4.874604       132.6447 
  73   0.0000       4.878727       132.7569 
  74   0.0000       4.878728       132.7569 
  75   0.0000       4.889958       133.0625 
  76   0.0000       4.909883       133.6047 
  77   0.0000       5.263961       143.2397 
  78   0.0000       5.433173       147.8442 
  79   0.0000       5.460890       148.5984 
  80   0.0000       5.460892       148.5984 
  81   0.0000       5.601838       152.4338 
  82   0.0000       5.601884       152.4350 
  83   0.0000       5.601885       152.4350 
  84   0.0000       5.601922       152.4360 
  85   0.0000       5.619434       152.9126 
  86   0.0000       5.625166       153.0686 
  87   0.0000       5.625168       153.0686 
  88   0.0000       5.642503       153.5403 
  89   0.0000       5.644120       153.5843 
  90   0.0000       5.839878       158.9112 
  91   0.0000       5.840176       158.9193 
  92   0.0000       5.840176       158.9193 
  93   0.0000       5.840458       158.9269 
  94   0.0000       5.856468       159.3626 
  95   0.0000       5.859149       159.4356 
  96   0.0000       5.859151       159.4356 
  97   0.0000       5.866801       159.6438 
  98   0.0000       5.869749       159.7240 
  99   0.0000       5.885244       160.1456 
 100   0.0000       5.885244       160.1456 

                 SPIN DOWN ORBITALS
  NO   OCC          E(Eh)            E(eV) 
   0   1.0000    -786.629692    -21405.2821 
   1   1.0000    -110.069940     -2995.1553 
   2   1.0000     -98.759342     -2687.3783 
   3   1.0000     -98.754698     -2687.2520 
   4   1.0000     -98.754698     -2687.2520 
   5   1.0000     -18.978975      -516.4442 
   6   1.0000     -15.240932      -414.7268 
   7   1.0000     -15.228283      -414.3826 
   8   1.0000     -15.228282      -414.3826 
   9   1.0000      -9.079668      -247.0703 
  10   1.0000      -9.076733      -246.9905 
  11   1.0000      -9.076732      -246.9904 
  12   1.0000      -9.068959      -246.7789 
  13   1.0000      -9.067836      -246.7484 
  14   1.0000      -2.520984       -68.5995 
  15   1.0000      -1.502440       -40.8835 
  16   1.0000      -1.491064       -40.5739 
  17   1.0000      -1.491063       -40.5739 
  18   1.0000      -0.104453        -2.8423 
  19   0.0000      -0.100775        -2.7422 
  20   0.0000      -0.090119        -2.4523 
  21   0.0000      -0.088111        -2.3976 
  22   0.0000      -0.088106        -2.3975 
  23   0.0000      -0.069679        -1.8961 
  24   0.0000       0.085716         2.3325 
  25   0.0000       0.085783         2.3343 
  26   0.0000       0.097511         2.6534 
  27   0.0000       0.144702         3.9375 
  28   0.0000       0.256578         6.9818 
  29   0.0000       0.277522         7.5518 
  30   0.0000       0.277594         7.5537 
  31   0.0000       0.284019         7.7285 
  32   0.0000       0.285095         7.7578 
  33   0.0000       0.636258        17.3135 
  34   0.0000       0.640365        17.4252 
  35   0.0000       0.640396        17.4261 
  36   0.0000       0.652068        17.7437 
  37   0.0000       0.654503        17.8099 
  38   0.0000       0.654630        17.8134 
  39   0.0000       0.660385        17.9700 
  40   0.0000       1.140647        31.0386 
  41   0.0000       1.141929        31.0735 
  42   0.0000       1.141973        31.0747 
  43   0.0000       1.144702        31.1489 
  44   0.0000       1.421672        38.6857 
  45   0.0000       1.431343        38.9488 
  46   0.0000       1.434733        39.0411 
  47   0.0000       1.434749        39.0415 
  48   0.0000       1.449335        39.4384 
  49   0.0000       1.802910        49.0597 
  50   0.0000       1.808060        49.1998 
  51   0.0000       1.808079        49.2003 
  52   0.0000       1.813704        49.3534 
  53   0.0000       1.824470        49.6464 
  54   0.0000       1.824527        49.6479 
  55   0.0000       1.831041        49.8251 
  56   0.0000       1.962142        53.3926 
  57   0.0000       1.963143        53.4198 
  58   0.0000       1.963152        53.4201 
  59   0.0000       1.964393        53.4539 
  60   0.0000       1.968800        53.5738 
  61   0.0000       1.978731        53.8440 
  62   0.0000       1.981790        53.9272 
  63   0.0000       1.981803        53.9276 
  64   0.0000       1.984412        53.9986 
  65   0.0000       4.587135       124.8223 
  66   0.0000       4.589053       124.8745 
  67   0.0000       4.589071       124.8750 
  68   0.0000       4.589905       124.8977 
  69   0.0000       4.603383       125.2644 
  70   0.0000       4.603409       125.2651 
  71   0.0000       4.605527       125.3228 
  72   0.0000       4.947797       134.6364 
  73   0.0000       4.950029       134.6971 
  74   0.0000       4.953703       134.7971 
  75   0.0000       4.953707       134.7972 
  76   0.0000       4.969350       135.2229 
  77   0.0000       5.326351       144.9374 
  78   0.0000       5.512535       150.0037 
  79   0.0000       5.521013       150.2344 
  80   0.0000       5.521025       150.2347 
  81   0.0000       5.707322       155.3041 
  82   0.0000       5.708360       155.3324 
  83   0.0000       5.708363       155.3325 
  84   0.0000       5.710193       155.3823 
  85   0.0000       5.720552       155.6641 
  86   0.0000       5.725100       155.7879 
  87   0.0000       5.725105       155.7880 
  88   0.0000       5.726111       155.8154 
  89   0.0000       5.727449       155.8518 
  90   0.0000       5.963879       162.2854 
  91   0.0000       5.964389       162.2993 
  92   0.0000       5.964390       162.2993 
  93   0.0000       5.964765       162.3095 
  94   0.0000       5.977371       162.6525 
  95   0.0000       5.977723       162.6621 
  96   0.0000       5.977726       162.6622 
  97   0.0000       5.986322       162.8961 
  98   0.0000       5.986881       162.9113 
  99   0.0000       5.986885       162.9114 
 100   0.0000       5.987243       162.9212 

                    ********************************
                    * MULLIKEN POPULATION ANALYSIS *
                    ********************************

--------------------------------------------
MULLIKEN ATOMIC CHARGES AND SPIN POPULATIONS
--------------------------------------------
   0 Tc:   -0.000000    5.000000
Sum of atomic charges         :   -0.0000000
Sum of atomic spin populations:    5.0000000

-----------------------------------------------------
MULLIKEN REDUCED ORBITAL CHARGES AND SPIN POPULATIONS
-----------------------------------------------------
CHARGE
  0 Tcs       :     9.000152  s :     9.000152
      pz      :     5.999925  p :    17.999722
      px      :     5.999896
      py      :     5.999900
      dz2     :     3.066234  d :    15.999553
      dxz     :     3.095456
      dyz     :     3.114400
      dx2y2   :     3.031363
      dxy     :     3.692099
      f0      :     0.000034  f :     0.000259
      f+1     :     0.000038
      f-1     :     0.000042
      f+2     :     0.000021
      f-2     :     0.000055
      f+3     :     0.000027
      f-3     :     0.000043
      g0      :     0.000045  g :     0.000295
      g+1     :     0.000037
      g-1     :     0.000042
      g+2     :     0.000018
      g-2     :     0.000057
      g+3     :     0.000030
      g-3     :     0.000027
      g+4     :     0.000027
      g-4     :     0.000013
      h0      :     0.000000  h :     0.000019
      h+1     :     0.000000
      h-1     :     0.000000
      h+2     :     0.000000
      h-2     :     0.000002
      h+3     :     0.000002
      h-3     :     0.000002
      h+4     :     0.000003
      h-4     :     0.000002
      h+5     :     0.000004
      h-5     :     0.000004

SPIN
  0 Tcs       :     1.000187  s :     1.000187
      pz      :    -0.000043  p :    -0.000129
      px      :    -0.000043
      py      :    -0.000043
      dz2     :     0.933528  d :     3.999549
      dxz     :     0.904352
      dyz     :     0.885331
      dx2y2   :     0.968571
      dxy     :     0.307767
      f0      :     0.000028  f :     0.000131
      f+1     :     0.000032
      f-1     :     0.000033
      f+2     :    -0.000005
      f-2     :     0.000038
      f+3     :    -0.000008
      f-3     :     0.000012
      g0      :     0.000038  g :     0.000264
      g+1     :     0.000036
      g-1     :     0.000041
      g+2     :     0.000017
      g-2     :     0.000054
      g+3     :     0.000022
      g-3     :     0.000025
      g+4     :     0.000020
      g-4     :     0.000011
      h0      :    -0.000000  h :    -0.000002
      h+1     :     0.000000
      h-1     :     0.000000
      h+2     :    -0.000000
      h-2     :    -0.000000
      h+3     :    -0.000000
      h-3     :    -0.000000
      h+4     :    -0.000000
      h-4     :    -0.000000
      h+5     :    -0.000000
      h-5     :    -0.000001


                     *******************************
                     * LOEWDIN POPULATION ANALYSIS *
                     *******************************

-------------------------------------------
LOEWDIN ATOMIC CHARGES AND SPIN POPULATIONS
-------------------------------------------
   0 Tc:   -0.000000    5.000000

----------------------------------------------------
LOEWDIN REDUCED ORBITAL CHARGES AND SPIN POPULATIONS
----------------------------------------------------
CHARGE
  0 Tcs       :     9.000152  s :     9.000152
      pz      :     5.999925  p :    17.999722
      px      :     5.999896
      py      :     5.999900
      dz2     :     3.066234  d :    15.999553
      dxz     :     3.095456
      dyz     :     3.114400
      dx2y2   :     3.031363
      dxy     :     3.692099
      f0      :     0.000034  f :     0.000259
      f+1     :     0.000038
      f-1     :     0.000042
      f+2     :     0.000021
      f-2     :     0.000055
      f+3     :     0.000027
      f-3     :     0.000043
      g0      :     0.000045  g :     0.000295
      g+1     :     0.000037
      g-1     :     0.000042
      g+2     :     0.000018
      g-2     :     0.000057
      g+3     :     0.000030
      g-3     :     0.000027
      g+4     :     0.000027
      g-4     :     0.000013
      h0      :     0.000000  h :     0.000019
      h+1     :     0.000000
      h-1     :     0.000000
      h+2     :     0.000000
      h-2     :     0.000002
      h+3     :     0.000002
      h-3     :     0.000002
      h+4     :     0.000003
      h-4     :     0.000002
      h+5     :     0.000004
      h-5     :     0.000004

SPIN
  0 Tcs       :     1.000187  s :     1.000187
      pz      :    -0.000043  p :    -0.000129
      px      :    -0.000043
      py      :    -0.000043
      dz2     :     0.933528  d :     3.999549
      dxz     :     0.904352
      dyz     :     0.885331
      dx2y2   :     0.968571
      dxy     :     0.307767
      f0      :     0.000028  f :     0.000131
      f+1     :     0.000032
      f-1     :     0.000033
      f+2     :    -0.000005
      f-2     :     0.000038
      f+3     :    -0.000008
      f-3     :     0.000012
      g0      :     0.000038  g :     0.000264
      g+1     :     0.000036
      g-1     :     0.000041
      g+2     :     0.000017
      g-2     :     0.000054
      g+3     :     0.000022
      g-3     :     0.000025
      g+4     :     0.000020
      g-4     :     0.000011
      h0      :    -0.000000  h :    -0.000002
      h+1     :     0.000000
      h-1     :     0.000000
      h+2     :    -0.000000
      h-2     :    -0.000000
      h+3     :    -0.000000
      h-3     :    -0.000000
      h+4     :    -0.000000
      h-4     :    -0.000000
      h+5     :    -0.000000
      h-5     :    -0.000001


                      *****************************
                      * MAYER POPULATION ANALYSIS *
                      *****************************

  NA   - Mulliken gross atomic population
  ZA   - Total nuclear charge
  QA   - Mulliken gross atomic charge
  VA   - Mayer's total valence
  BVA  - Mayer's bonded valence
  FA   - Mayer's free valence

  ATOM       NA         ZA         QA         VA         BVA        FA
  0 Tc    43.0000    43.0000    -0.0000     5.0023     0.0000     5.0023

  Mayer bond orders larger than 0.100000


-------
TIMINGS
-------

Total SCF time: 0 days 6 hours 29 min 39 sec 

Total time                  ....   23379.238 sec
Sum of individual times     ....   23371.330 sec  (100.0%)

Fock matrix formation       ....   23363.399 sec  ( 99.9%)
  XC integration            ....      28.603 sec  (  0.1% of F)
    Basis function eval.    ....       2.502 sec  (  8.7% of XC)
    Density eval.           ....       1.250 sec  (  4.4% of XC)
    XC-Functional eval.     ....       0.969 sec  (  3.4% of XC)
    XC-Potential eval.      ....       1.458 sec  (  5.1% of XC)
Diagonalization             ....       0.916 sec  (  0.0%)
Density matrix formation    ....       0.054 sec  (  0.0%)
Population analysis         ....       0.150 sec  (  0.0%)
Initial guess               ....       0.383 sec  (  0.0%)
Orbital Transformation      ....       0.000 sec  (  0.0%)
Orbital Orthonormalization  ....       0.000 sec  (  0.0%)
DIIS solution               ....       0.435 sec  (  0.0%)
SOSCF solution              ....       1.627 sec  (  0.0%)
Grid generation             ....       4.366 sec  (  0.0%)

Maximum memory used throughout the entire SCF-calculation: 265.8 MB

-------------------------   --------------------
FINAL SINGLE POINT ENERGY     -4339.718052309643
-------------------------   --------------------


                            ***************************************
                            *     ORCA property calculations      *
                            ***************************************

                                    ---------------------
                                    Active property flags
                                    ---------------------
   (+) Dipole Moment


------------------------------------------------------------------------------
                       ORCA ELECTRIC PROPERTIES CALCULATION
------------------------------------------------------------------------------

Dipole Moment Calculation                       ... on
Quadrupole Moment Calculation                   ... off
Polarizability Calculation                      ... off
GBWName                                         ... Tc_ano-r3_pbe.gbw
Electron density                                ... Tc_ano-r3_pbe.scfp
The origin for moment calculation is the CENTER OF MASS  = ( 0.000000,  0.000000  0.000000)

-------------
DIPOLE MOMENT
-------------
                                X             Y             Z
Electronic contribution:      0.00000      -0.00000       0.00000
Nuclear contribution   :      0.00000       0.00000       0.00000
                        -----------------------------------------
Total Dipole Moment    :      0.00000      -0.00000       0.00000
                        -----------------------------------------
Magnitude (a.u.)       :      0.00000
Magnitude (Debye)      :      0.00000



--------------------
Rotational spectrum 
--------------------
 
Rotational constants in cm-1:     0.000000     0.000000     0.000000 
Rotational constants in MHz :     0.000000     0.000000     0.000000 

 Dipole components along the rotational axes: 
x,y,z [a.u.] :     0.000000    -0.000000     0.000000 
x,y,z [Debye]:     0.000000    -0.000000     0.000000 

 

Timings for individual modules:

Sum of individual times         ...    23417.927 sec (= 390.299 min)
GTO integral calculation        ...       26.308 sec (=   0.438 min)   0.1 %
Relativistic integrals          ...        6.905 sec (=   0.115 min)   0.0 %
SCF iterations                  ...    23384.714 sec (= 389.745 min)  99.9 %
                             ****ORCA TERMINATED NORMALLY****
TOTAL RUN TIME: 0 days 6 hours 30 minutes 28 seconds 245 msec
