
                                 *****************
                                 * O   R   C   A *
                                 *****************

                                            #,                                       
                                            ###                                      
                                            ####                                     
                                            #####                                    
                                            ######                                   
                                           ########,                                 
                                     ,,################,,,,,                         
                               ,,#################################,,                 
                          ,,##########################################,,             
                       ,#########################################, ''#####,          
                    ,#############################################,,   '####,        
                  ,##################################################,,,,####,       
                ,###########''''           ''''###############################       
              ,#####''   ,,,,##########,,,,          '''####'''          '####       
            ,##' ,,,,###########################,,,                        '##       
           ' ,,###''''                  '''############,,,                           
         ,,##''                                '''############,,,,        ,,,,,,###''
      ,#''                                            '''#######################'''  
     '                                                          ''''####''''         
             ,#######,   #######,   ,#######,      ##                                
            ,#'     '#,  ##    ##  ,#'     '#,    #''#        ######   ,####,        
            ##       ##  ##   ,#'  ##            #'  '#       #        #'  '#        
            ##       ##  #######   ##           ,######,      #####,   #    #        
            '#,     ,#'  ##    ##  '#,     ,#' ,#      #,         ##   #,  ,#        
             '#######'   ##     ##  '#######'  #'      '#     #####' # '####'        



                  #######################################################
                  #                        -***-                        #
                  #          Department of theory and spectroscopy      #
                  #    Directorship and core code : Frank Neese         #
                  #        Max Planck Institute fuer Kohlenforschung    #
                  #                Kaiser Wilhelm Platz 1               #
                  #                 D-45470 Muelheim/Ruhr               #
                  #                      Germany                        #
                  #                                                     #
                  #                  All rights reserved                #
                  #                        -***-                        #
                  #######################################################


                         Program Version 5.0.3 -  RELEASE  -


 With contributions from (in alphabetic order):
   Daniel Aravena         : Magnetic Suceptibility
   Michael Atanasov       : Ab Initio Ligand Field Theory (pilot matlab implementation)
   Alexander A. Auer      : GIAO ZORA, VPT2 properties, NMR spectrum
   Ute Becker             : Parallelization
   Giovanni Bistoni       : ED, misc. LED, open-shell LED, HFLD
   Martin Brehm           : Molecular dynamics
   Dmytro Bykov           : SCF Hessian
   Vijay G. Chilkuri      : MRCI spin determinant printing, contributions to CSF-ICE
   Dipayan Datta          : RHF DLPNO-CCSD density
   Achintya Kumar Dutta   : EOM-CC, STEOM-CC
   Dmitry Ganyushin       : Spin-Orbit,Spin-Spin,Magnetic field MRCI
   Miquel Garcia          : C-PCM and meta-GGA Hessian, CC/C-PCM, Gaussian charge scheme
   Yang Guo               : DLPNO-NEVPT2, F12-NEVPT2, CIM, IAO-localization
   Andreas Hansen         : Spin unrestricted coupled pair/coupled cluster methods
   Benjamin Helmich-Paris : MC-RPA, TRAH-SCF, COSX integrals
   Lee Huntington         : MR-EOM, pCC
   Robert Izsak           : Overlap fitted RIJCOSX, COSX-SCS-MP3, EOM
   Marcus Kettner         : VPT2
   Christian Kollmar      : KDIIS, OOCD, Brueckner-CCSD(T), CCSD density, CASPT2, CASPT2-K
   Simone Kossmann        : Meta GGA functionals, TD-DFT gradient, OOMP2, MP2 Hessian
   Martin Krupicka        : Initial AUTO-CI
   Lucas Lang             : DCDCAS
   Marvin Lechner         : AUTO-CI (C++ implementation), FIC-MRCC
   Dagmar Lenk            : GEPOL surface, SMD
   Dimitrios Liakos       : Extrapolation schemes; Compound Job, initial MDCI parallelization
   Dimitrios Manganas     : Further ROCIS development; embedding schemes
   Dimitrios Pantazis     : SARC Basis sets
   Anastasios Papadopoulos: AUTO-CI, single reference methods and gradients
   Taras Petrenko         : DFT Hessian,TD-DFT gradient, ASA, ECA, R-Raman, ABS, FL, XAS/XES, NRVS
   Peter Pinski           : DLPNO-MP2, DLPNO-MP2 Gradient
   Christoph Reimann      : Effective Core Potentials
   Marius Retegan         : Local ZFS, SOC
   Christoph Riplinger    : Optimizer, TS searches, QM/MM, DLPNO-CCSD(T), (RO)-DLPNO pert. Triples
   Tobias Risthaus        : Range-separated hybrids, TD-DFT gradient, RPA, STAB
   Michael Roemelt        : Original ROCIS implementation
   Masaaki Saitow         : Open-shell DLPNO-CCSD energy and density
   Barbara Sandhoefer     : DKH picture change effects
   Avijit Sen             : IP-ROCIS
   Kantharuban Sivalingam : CASSCF convergence, NEVPT2, FIC-MRCI
   Bernardo de Souza      : ESD, SOC TD-DFT
   Georgi Stoychev        : AutoAux, RI-MP2 NMR, DLPNO-MP2 response
   Willem Van den Heuvel  : Paramagnetic NMR
   Boris Wezisla          : Elementary symmetry handling
   Frank Wennmohs         : Technical directorship


 We gratefully acknowledge several colleagues who have allowed us to
 interface, adapt or use parts of their codes:
   Stefan Grimme, W. Hujo, H. Kruse, P. Pracht,  : VdW corrections, initial TS optimization,
                  C. Bannwarth, S. Ehlert          DFT functionals, gCP, sTDA/sTD-DF
   Ed Valeev, F. Pavosevic, A. Kumar             : LibInt (2-el integral package), F12 methods
   Garnet Chan, S. Sharma, J. Yang, R. Olivares  : DMRG
   Ulf Ekstrom                                   : XCFun DFT Library
   Mihaly Kallay                                 : mrcc  (arbitrary order and MRCC methods)
   Jiri Pittner, Ondrej Demel                    : Mk-CCSD
   Frank Weinhold                                : gennbo (NPA and NBO analysis)
   Christopher J. Cramer and Donald G. Truhlar   : smd solvation model
   Lars Goerigk                                  : TD-DFT with DH, B97 family of functionals
   V. Asgeirsson, H. Jonsson                     : NEB implementation
   FAccTs GmbH                                   : IRC, NEB, NEB-TS, DLPNO-Multilevel, CI-OPT
                                                   MM, QMMM, 2- and 3-layer-ONIOM, Crystal-QMMM,
                                                   LR-CPCM, SF, NACMEs, symmetry and pop. for TD-DFT,
                                                   nearIR, NL-DFT gradient (VV10), updates on ESD,
                                                   ML-optimized integration grids
   S Lehtola, MJT Oliveira, MAL Marques          : LibXC Library
   Liviu Ungur et al                             : ANISO software


 Your calculation uses the libint2 library for the computation of 2-el integrals
 For citations please refer to: http://libint.valeyev.net

 Your ORCA version has been built with support for libXC version: 5.1.0
 For citations please refer to: https://tddft.org/programs/libxc/

 This ORCA versions uses:
   CBLAS   interface :  Fast vector & matrix operations
   LAPACKE interface :  Fast linear algebra routines
   SCALAPACK package :  Parallel linear algebra routines
   Shared memory     :  Shared parallel matrices
   BLAS/LAPACK       :  OpenBLAS 0.3.15  USE64BITINT DYNAMIC_ARCH NO_AFFINITY SkylakeX SINGLE_THREADED
        Core in use  :  SkylakeX
   Copyright (c) 2011-2014, The OpenBLAS Project


SCAN-COORDS
Reading of a custom orbital basis requested
Basis file: Tc_sapporo-qzp-2012-diffuse.basis
READING GTO-BASIS: TECHNETIUM
Basis read successfully!

================================================================================

----- Orbital basis set information -----
Basis read from file: Tc_sapporo-qzp-2012-diffuse.basis

================================================================================
                                        WARNINGS
                       Please study these warnings very carefully!
================================================================================


INFO   : the flag for use of the SHARK integral package has been found!

================================================================================
                                       INPUT FILE
================================================================================
NAME = Tc_sapporo-qzp-2012-diffuse_pbe.inp
|  1> !uks pbe nori verytightscf nososcf notrah defgrid3
|  2> 
|  3> %pal
|  4>   nprocs 16
|  5> end
|  6> %coords
|  7>   charge 0
|  8>   mult 6
|  9>   units bohrs
| 10>   coords
| 11>     Tc 0.0 0.0 0.0
| 12>   end
| 13> end
| 14> %basis
| 15>   gtoname "Tc_sapporo-qzp-2012-diffuse.basis"
| 16>   delECP Tc
| 17> end
| 18> %scf
| 19>   maxiter 400
| 20> end
| 21> %rel
| 22>   method zora
| 23>   modelpot 1, 0, 0, 0
| 24>   c 137.035999084
| 25> end
| 26> 
| 27>                          ****END OF INPUT****
================================================================================

                       ****************************
                       * Single Point Calculation *
                       ****************************

---------------------------------
CARTESIAN COORDINATES (ANGSTROEM)
---------------------------------
  Tc     0.000000    0.000000    0.000000

----------------------------
CARTESIAN COORDINATES (A.U.)
----------------------------
  NO LB      ZA    FRAG     MASS         X           Y           Z
   0 Tc   43.0000    0    97.000    0.000000    0.000000    0.000000

--------------------------------
INTERNAL COORDINATES (ANGSTROEM)
--------------------------------
 Tc     0   0   0     0.000000000000     0.00000000     0.00000000

---------------------------
INTERNAL COORDINATES (A.U.)
---------------------------
 Tc     0   0   0     0.000000000000     0.00000000     0.00000000

---------------------
BASIS SET INFORMATION
---------------------
There are 1 groups of distinct atoms

 Group   1 Type Tc  : 22s17p13d4f3g2h contracted to 11s9p7d4f3g2h pattern {74221111111/731111111/7111111/1111/111/11}

Atom   0Tc   basis set group =>   1


           ************************************************************
           *        Program running with 16 parallel MPI-processes    *
           *              working on a common directory               *
           ************************************************************
------------------------------------------------------------------------------
                           ORCA GTO INTEGRAL CALCULATION
------------------------------------------------------------------------------
------------------------------------------------------------------------------
                   ___                                                        
                  /   \      - P O W E R E D   B Y -                         
                 /     \                                                     
                 |  |  |   _    _      __       _____    __    __             
                 |  |  |  | |  | |    /  \     |  _  \  |  |  /  |          
                  \  \/   | |  | |   /    \    | | | |  |  | /  /          
                 / \  \   | |__| |  /  /\  \   | |_| |  |  |/  /          
                |  |  |   |  __  | /  /__\  \  |    /   |      \           
                |  |  |   | |  | | |   __   |  |    \   |  |\   \          
                \     /   | |  | | |  |  |  |  | |\  \  |  | \   \       
                 \___/    |_|  |_| |__|  |__|  |_| \__\ |__|  \__/        
                                                                              
                      - O R C A' S   B I G   F R I E N D -                    
                                      &                                       
                       - I N T E G R A L  F E E D E R -                       
                                                                              
 v1 FN, 2020, v2 2021                                                         
------------------------------------------------------------------------------


Reading SHARK input file Tc_sapporo-qzp-2012-diffuse_pbe.SHARKINP.tmp ... ok
----------------------
SHARK INTEGRAL PACKAGE
----------------------

Number of atoms                             ...      1
Number of basis functions                   ...    150
Number of shells                            ...     36
Maximum angular momentum                    ...      5
Integral batch strategy                     ... SHARK/LIBINT Hybrid
RI-J (if used) integral strategy            ... SPLIT-RIJ (Revised 2003 algorithm where possible)
Printlevel                                  ...      1
Contraction scheme used                     ... SEGMENTED contraction
Coulomb Range Separation                    ... NOT USED
Exchange Range Separation                   ... NOT USED
Finite Nucleus Model                        ... NOT USED
Auxiliary Coulomb fitting basis             ... NOT available
Auxiliary J/K fitting basis                 ... NOT available
Auxiliary Correlation fitting basis         ... NOT available
Auxiliary 'external' fitting basis          ... NOT available
Integral threshold                          ...     1.000000e-12
Primitive cut-off                           ...     1.000000e-14
Primitive pair pre-selection threshold      ...     1.000000e-14

Calculating pre-screening integrals         ... done (  0.1 sec) Dimension = 36
Organizing shell pair data                  ... done (  0.1 sec)
Shell pair information
Total number of shell pairs                 ...       666
Shell pairs after pre-screening             ...       666
Total number of primitive shell pairs       ...      1965
Primitive shell pairs kept                  ...      1965
          la=0 lb=0:     66 shell pairs
          la=1 lb=0:     99 shell pairs
          la=1 lb=1:     45 shell pairs
          la=2 lb=0:     77 shell pairs
          la=2 lb=1:     63 shell pairs
          la=2 lb=2:     28 shell pairs
          la=3 lb=0:     44 shell pairs
          la=3 lb=1:     36 shell pairs
          la=3 lb=2:     28 shell pairs
          la=3 lb=3:     10 shell pairs
          la=4 lb=0:     33 shell pairs
          la=4 lb=1:     27 shell pairs
          la=4 lb=2:     21 shell pairs
          la=4 lb=3:     12 shell pairs
          la=4 lb=4:      6 shell pairs
          la=5 lb=0:     22 shell pairs
          la=5 lb=1:     18 shell pairs
          la=5 lb=2:     14 shell pairs
          la=5 lb=3:      8 shell pairs
          la=5 lb=4:      6 shell pairs
          la=5 lb=5:      3 shell pairs

Calculating one electron integrals          ... done (  0.0 sec)
Calculating Nuclear repulsion               ... done (  0.0 sec) ENN=      0.000000000000 Eh

SHARK setup successfully completed in   0.4 seconds

Maximum memory used throughout the entire GTOINT-calculation: 40.3 MB


           ************************************************************
           *        Program running with 16 parallel MPI-processes    *
           *              working on a common directory               *
           ************************************************************
------------------------------------------------------------------------------
                          ORCA RELATIVISTIC HAMILTONIAN
------------------------------------------------------------------------------

Relativistic Method            ... ZORA(MP)
Treatment of potential         ... Van Wuellen
Nucleus model                  ... Point Nucleus
Speed of light used            ... 137.03599908400000


            *************************************************
            *         ZERO ORDER REGULAR APPROXIMATION      *
            *                     ZORA(MP)                  *
            *            Programmed by FN according to      *
            *                   C. van Wuellen              *
            *       J. Chem. Phys. (1998) vol 109, 392-399  *
            *************************************************

Terms included in model potential: +V(e,N)
Basis function cutoff value   ... 1.000000e-12
Loading the fitted atomic densities  (DKH4)  ... done
Calculating the cutoffs                      ... done
Number of fit functions                      ... 28
Setting up the integration grid ... done

Maximum memory used throughout the entire REL-calculation: 12.2 MB


           ************************************************************
           *        Program running with 16 parallel MPI-processes    *
           *              working on a common directory               *
           ************************************************************
-------------------------------------------------------------------------------
                                 ORCA SCF
-------------------------------------------------------------------------------

------------
SCF SETTINGS
------------
Hamiltonian:
 Density Functional     Method          .... DFT(GTOs)
 Exchange Functional    Exchange        .... PBE
   PBE kappa parameter   XKappa         ....  0.804000
   PBE mue parameter    XMuePBE         ....  0.219520
 Correlation Functional Correlation     .... PBE
   PBE beta parameter  CBetaPBE         ....  0.066725
 LDA part of GGA corr.  LDAOpt          .... PW91-LDA
 Gradients option       PostSCFGGA      .... off
   Density functional embedding theory  .... OFF
   NL short-range parameter             ....  6.400000

Relativistic Settings:
 Scalar relativistic method             .... ZORA
 Speed of light used       Velit        ....       137.035999
Orbital energies will be scaled


General Settings:
 Integral files         IntName         .... Tc_sapporo-qzp-2012-diffuse_pbe
 Hartree-Fock type      HFTyp           .... UHF
 Total Charge           Charge          ....    0
 Multiplicity           Mult            ....    6
 Number of Electrons    NEL             ....   43
 Basis Dimension        Dim             ....  150
 Nuclear Repulsion      ENuc            ....      0.0000000000 Eh

Convergence Acceleration:
 DIIS                   CNVDIIS         .... on
   Start iteration      DIISMaxIt       ....    12
   Startup error        DIISStart       ....  0.200000
   # of expansion vecs  DIISMaxEq       ....     5
   Bias factor          DIISBfac        ....   1.050
   Max. coefficient     DIISMaxC        ....  10.000
 Trust-Rad. Augm. Hess. CNVTRAH         .... off
 SOSCF                  CNVSOSCF        .... off
 Level Shifting         CNVShift        .... on
   Level shift para.    LevelShift      ....    0.2500
   Turn off err/grad.   ShiftErr        ....    0.0010
 Zerner damping         CNVZerner       .... off
 Static damping         CNVDamp         .... on
   Fraction old density DampFac         ....    0.7000
   Max. Damping (<1)    DampMax         ....    0.9800
   Min. Damping (>=0)   DampMin         ....    0.0000
   Turn off err/grad.   DampErr         ....    0.1000
 Fernandez-Rico         CNVRico         .... off

SCF Procedure:
 Maximum # iterations   MaxIter         ....   400
 SCF integral mode      SCFMode         .... Direct
   Integral package                     .... SHARK and LIBINT hybrid scheme
 Reset frequency        DirectResetFreq ....    20
 Integral Threshold     Thresh          ....  1.000e-12 Eh
 Primitive CutOff       TCut            ....  1.000e-14 Eh

Convergence Tolerance:
 Convergence Check Mode ConvCheckMode   .... Total+1el-Energy
 Convergence forced     ConvForced      .... 0
 Energy Change          TolE            ....  1.000e-09 Eh
 1-El. energy change                    ....  1.000e-06 Eh
 DIIS Error             TolErr          ....  1.000e-08


Diagonalization of the overlap matrix:
Smallest eigenvalue                        ... 1.395e-04
Time for diagonalization                   ...    0.004 sec
Threshold for overlap eigenvalues          ... 1.000e-08
Number of eigenvalues below threshold      ... 0
Time for construction of square roots      ...    0.003 sec
Total time needed                          ...    0.007 sec

Time for model grid setup =    0.032 sec

------------------------------
INITIAL GUESS: MODEL POTENTIAL
------------------------------
Loading ZORA relativistic densities                ... done
Calculating cut-offs                               ... done
Initializing the effective Hamiltonian             ... done
Setting up the integral package (SHARK)            ... done
Starting the Coulomb interaction                   ... done (   0.0 sec)
Reading the grid                                   ... done
Mapping shells                                     ... done
Starting the XC term evaluation                    ... done (   0.0 sec)
  promolecular density results
     # of electrons  =     42.999981154
     EX              =   -129.671198669
     EC              =     -2.151854553
     EX+EC           =   -131.823053222
Transforming the Hamiltonian                       ... done (   0.0 sec)
Diagonalizing the Hamiltonian                      ... done (   0.0 sec)
Back transforming the eigenvectors                 ... done (   0.0 sec)
Now organizing SCF variables                       ... done
                      ------------------
                      INITIAL GUESS DONE (   0.0 sec)
                      ------------------
-------------------
DFT GRID GENERATION
-------------------

General Integration Accuracy     IntAcc      ... 4.959
Radial Grid Type                 RadialGrid  ... OptM3 with GC (2021)
Angular Grid (max. ang.)         AngularGrid ... 6 (Lebedev-590)
Angular grid pruning method      GridPruning ... 4 (adaptive)
Weight generation scheme         WeightScheme... Becke
Basis function cutoff            BFCut       ... 1.0000e-12
Integration weight cutoff        WCut        ... 1.0000e-14
Angular grids for H and He will be reduced by one unit
Partially contracted basis set               ... off
Rotationally invariant grid construction     ... off

Total number of grid points                  ...    32866
Total number of batches                      ...      514
Average number of points per batch           ...       63
Average number of grid points per atom       ...    32866
Time for grid setup =    0.630 sec

--------------
SCF ITERATIONS
--------------
ITER       Energy         Delta-E        Max-DP      RMS-DP      [F,P]     Damp
               ***  Starting incremental Fock matrix formation  ***
  0  -4331.2388769691   0.000000000000 0.05766091  0.00083254  0.0851521 0.7000
  1  -4331.2681934295  -0.029316460346 0.04288708  0.00064693  0.0552198 0.7000
                               ***Turning on DIIS***
  2  -4331.2826361317  -0.014442702265 0.08401543  0.00140218  0.0373455 0.0000
  3  -4331.3052052027  -0.022569070981 0.02238698  0.00036104  0.0279816 0.0000
  4  -4331.3095479709  -0.004342768161 0.01171801  0.00014488  0.0072952 0.0000
  5  -4331.3099774489  -0.000429477971 0.00455986  0.00004263  0.0024210 0.0000
  6  -4331.3099931679  -0.000015719083 0.00134074  0.00002879  0.0004764 0.0000
  7  -4331.3099967271  -0.000003559160 0.00034325  0.00000767  0.0002920 0.0000
  8  -4331.3099973034  -0.000000576306 0.00154081  0.00003125  0.0001808 0.0000
  9  -4331.3099997833  -0.000002479918 0.00157705  0.00003257  0.0001432 0.0000
 10  -4331.3100037300  -0.000003946661 0.00051155  0.00001076  0.0002770 0.0000
 11  -4331.3100022730   0.000001457014 0.00088104  0.00001822  0.0002342 0.0000
 12  -4331.3100046800  -0.000002407031 0.00031290  0.00000661  0.0003406 0.0000
 13  -4331.3100056953  -0.000001015292 0.00016775  0.00000350  0.0003713 0.0000
 14  -4331.3100062333  -0.000000538003 0.00086930  0.00001800  0.0003915 0.0000
 15  -4331.3100096625  -0.000003429194 0.00163454  0.00003451  0.0004566 0.0000
 16  -4331.3100038428   0.000005819703 0.00119303  0.00002611  0.0003091 0.0000
 17  -4331.3100007662   0.000003076626 0.00011911  0.00000291  0.0001972 0.0000
 18  -4331.3100004107   0.000000355503 0.00162414  0.00003461  0.0002458 0.0000
 19  -4331.3099980944   0.000002316305 0.00143893  0.00003065  0.0001074 0.0000
               *** Restarting incremental Fock matrix formation ***
                                   *** Resetting DIIS ***
 20  -4331.3099975909   0.000000503499 0.00017658  0.00000354  0.0000290 0.0000
 21  -4331.3099976387  -0.000000047803 0.00041560  0.00000909  0.0000136 0.0000
 22  -4331.3099977917  -0.000000153052 0.00036367  0.00000754  0.0000780 0.0000
 23  -4331.3099976431   0.000000148653 0.00010851  0.00000227  0.0000447 0.0000
 24  -4331.3099976164   0.000000026619 0.00013166  0.00000276  0.0000331 0.0000
 25  -4331.3099975938   0.000000022624 0.00012219  0.00000258  0.0000194 0.0000
 26  -4331.3099975827   0.000000011082 0.00004126  0.00000089  0.0000075 0.0000
 27  -4331.3099975813   0.000000001431 0.00001184  0.00000025  0.0000044 0.0000
 28  -4331.3099975815  -0.000000000145 0.00000991  0.00000026  0.0000043 0.0000
 29  -4331.3099975815  -0.000000000027 0.00000958  0.00000024  0.0000036 0.0000
 30  -4331.3099975817  -0.000000000182 0.00001426  0.00000033  0.0000030 0.0000
 31  -4331.3099975819  -0.000000000262 0.00001119  0.00000024  0.0000029 0.0000
 32  -4331.3099975822  -0.000000000316 0.00001724  0.00000036  0.0000029 0.0000
 33  -4331.3099975827  -0.000000000490 0.00000647  0.00000015  0.0000029 0.0000
 34  -4331.3099975830  -0.000000000254 0.00001099  0.00000023  0.0000029 0.0000
 35  -4331.3099975833  -0.000000000270 0.00000460  0.00000010  0.0000029 0.0000
 36  -4331.3099975835  -0.000000000201 0.00000553  0.00000012  0.0000029 0.0000
 37  -4331.3099975835  -0.000000000076 0.00000657  0.00000014  0.0000029 0.0000
 38  -4331.3099975837  -0.000000000216 0.00000720  0.00000015  0.0000029 0.0000
 39  -4331.3099975840  -0.000000000215 0.00000790  0.00000017  0.0000029 0.0000
               *** Restarting incremental Fock matrix formation ***
                                   *** Resetting DIIS ***
 40  -4331.3099975842  -0.000000000265 0.00000964  0.00000020  0.0000029 0.0000
 41  -4331.3099975845  -0.000000000274 0.00000723  0.00000015  0.0000029 0.0000
 42  -4331.3099975847  -0.000000000200 0.00000684  0.00000015  0.0000029 0.0000
 43  -4331.3099975849  -0.000000000237 0.00000443  0.00000010  0.0000029 0.0000
 44  -4331.3099975851  -0.000000000186 0.00000338  0.00000008  0.0000029 0.0000
 45  -4331.3099975852  -0.000000000072 0.00000095  0.00000003  0.0000029 0.0000
 46  -4331.3099975852  -0.000000000022 0.00000278  0.00000007  0.0000029 0.0000
 47  -4331.3099975853  -0.000000000079 0.00000264  0.00000006  0.0000029 0.0000
 48  -4331.3099975854  -0.000000000101 0.00000223  0.00000007  0.0000029 0.0000
 49  -4331.3099975855  -0.000000000089 0.00000064  0.00000002  0.0000029 0.0000
 50  -4331.3099975855  -0.000000000014 0.00000252  0.00000007  0.0000029 0.0000
 51  -4331.3099975856  -0.000000000086 0.00000121  0.00000003  0.0000029 0.0000
 52  -4331.3099975856   0.000000000019 0.00000452  0.00000012  0.0000029 0.0000
 53  -4331.3099975858  -0.000000000198 0.00000390  0.00000009  0.0000031 0.0000
 54  -4331.3099975857   0.000000000058 0.00000267  0.00000008  0.0000029 0.0000
 55  -4331.3099975858  -0.000000000129 0.00000829  0.00000019  0.0000030 0.0000
 56  -4331.3099975860  -0.000000000204 0.00001625  0.00000034  0.0000035 0.0000
 57  -4331.3099975857   0.000000000300 0.00000528  0.00000011  0.0000029 0.0000
 58  -4331.3099975859  -0.000000000136 0.00000486  0.00000011  0.0000029 0.0000
 59  -4331.3099975860  -0.000000000132 0.00000529  0.00000011  0.0000029 0.0000
               *** Restarting incremental Fock matrix formation ***
                                   *** Resetting DIIS ***
 60  -4331.3099975862  -0.000000000162 0.00000930  0.00000021  0.0000029 0.0000
 61  -4331.3099975865  -0.000000000312 0.00000667  0.00000018  0.0000029 0.0000
 62  -4331.3099975867  -0.000000000206 0.00000253  0.00000006  0.0000029 0.0000
 63  -4331.3099975866   0.000000000071 0.00000012  0.00000000  0.0000029 0.0000
                 **** Energy Check signals convergence ****

               *****************************************************
               *                     SUCCESS                       *
               *           SCF CONVERGED AFTER  64 CYCLES          *
               *****************************************************


----------------
TOTAL SCF ENERGY
----------------

Total Energy       :        -4331.30999759 Eh         -117860.93697 eV

Components:
Nuclear Repulsion  :            0.00000000 Eh               0.00000 eV
Electronic Energy  :        -4331.30999759 Eh         -117860.93697 eV
One Electron Energy:        -5952.32256080 Eh         -161970.93132 eV
Two Electron Energy:         1621.01256321 Eh           44109.99435 eV

Virial components:
Potential Energy   :        -8473.34792542 Eh         -230571.51908 eV
Kinetic Energy     :         4142.03792784 Eh          112710.58211 eV
Virial Ratio       :            2.04569540


DFT components:
N(Alpha)           :       23.999999972308 electrons
N(Beta)            :       18.999999972257 electrons
N(Total)           :       42.999999944565 electrons
E(X)               :     -125.097858505959 Eh       
E(C)               :       -2.162008555696 Eh       
E(XC)              :     -127.259867061655 Eh       
DFET-embed. en.    :        0.000000000000 Eh       

---------------
SCF CONVERGENCE
---------------

  Last Energy change         ...    9.0949e-13  Tolerance :   1.0000e-09
  Last MAX-Density change    ...    1.3251e-07  Tolerance :   1.0000e-08
  Last RMS-Density change    ...    3.3285e-09  Tolerance :   1.0000e-09
  Last DIIS Error            ...    2.8603e-06  Tolerance :   1.0000e-08

             **** THE GBW FILE WAS UPDATED (Tc_sapporo-qzp-2012-diffuse_pbe.gbw) ****
             **** DENSITY Tc_sapporo-qzp-2012-diffuse_pbe.scfp WAS UPDATED ****
             **** ENERGY FILE WAS UPDATED (Tc_sapporo-qzp-2012-diffuse_pbe.en.tmp) ****
----------------------
UHF SPIN CONTAMINATION
----------------------

Warning: in a DFT calculation there is little theoretical justification to 
         calculate <S**2> as in Hartree-Fock theory. We will do it anyways
         but you should keep in mind that the values have only limited relevance

Expectation value of <S**2>     :     8.751838
Ideal value S*(S+1) for S=2.5   :     8.750000
Deviation                       :     0.001838

             **** THE GBW FILE WAS UPDATED (Tc_sapporo-qzp-2012-diffuse_pbe.gbw) ****
             **** DENSITY Tc_sapporo-qzp-2012-diffuse_pbe.scfp WAS UPDATED ****
----------------
ORBITAL ENERGIES
----------------
                 SPIN UP ORBITALS
  NO   OCC          E(Eh)            E(eV) 
   0   1.0000    -786.283703    -21395.8673 
   1   1.0000    -109.767016     -2986.9123 
   2   1.0000     -99.011171     -2694.2309 
   3   1.0000     -99.003468     -2694.0213 
   4   1.0000     -99.003466     -2694.0213 
   5   1.0000     -18.875016      -513.6153 
   6   1.0000     -15.258353      -415.2009 
   7   1.0000     -15.243245      -414.7898 
   8   1.0000     -15.243244      -414.7898 
   9   1.0000      -9.093750      -247.4535 
  10   1.0000      -9.091188      -247.3838 
  11   1.0000      -9.091187      -247.3838 
  12   1.0000      -9.083491      -247.1744 
  13   1.0000      -9.075651      -246.9610 
  14   1.0000      -2.598835       -70.7179 
  15   1.0000      -1.623733       -44.1840 
  16   1.0000      -1.585500       -43.1437 
  17   1.0000      -1.585486       -43.1433 
  18   1.0000      -0.212258        -5.7758 
  19   1.0000      -0.206620        -5.6224 
  20   1.0000      -0.206609        -5.6221 
  21   1.0000      -0.193323        -5.2606 
  22   1.0000      -0.170839        -4.6488 
  23   1.0000      -0.168302        -4.5797 
  24   0.0000      -0.051136        -1.3915 
  25   0.0000      -0.043429        -1.1818 
  26   0.0000      -0.043420        -1.1815 
  27   0.0000       0.000973         0.0265 
  28   0.0000       0.035068         0.9543 
  29   0.0000       0.035427         0.9640 
  30   0.0000       0.035428         0.9641 
  31   0.0000       0.036601         0.9960 
  32   0.0000       0.036941         1.0052 
  33   0.0000       0.109398         2.9769 
  34   0.0000       0.110265         3.0005 
  35   0.0000       0.118221         3.2170 
  36   0.0000       0.118231         3.2172 
  37   0.0000       0.168659         4.5894 
  38   0.0000       0.169672         4.6170 
  39   0.0000       0.169675         4.6171 
  40   0.0000       0.173321         4.7163 
  41   0.0000       0.175155         4.7662 
  42   0.0000       0.273376         7.4389 
  43   0.0000       0.274063         7.4576 
  44   0.0000       0.274068         7.4578 
  45   0.0000       0.275704         7.5023 
  46   0.0000       0.275899         7.5076 
  47   0.0000       0.279325         7.6008 
  48   0.0000       0.279327         7.6009 
  49   0.0000       0.555173        15.1070 
  50   0.0000       0.583664        15.8823 
  51   0.0000       0.584077        15.8935 
  52   0.0000       0.584083        15.8937 
  53   0.0000       0.584993        15.9185 
  54   0.0000       0.585432        15.9304 
  55   0.0000       0.587038        15.9741 
  56   0.0000       0.587039        15.9741 
  57   0.0000       0.589652        16.0453 
  58   0.0000       0.590309        16.0631 
  59   0.0000       0.665747        18.1159 
  60   0.0000       0.667888        18.1742 
  61   0.0000       0.667897        18.1744 
  62   0.0000       0.675912        18.3925 
  63   0.0000       0.685349        18.6493 
  64   0.0000       0.757726        20.6188 
  65   0.0000       0.776191        21.1212 
  66   0.0000       0.776205        21.1216 
  67   0.0000       0.837889        22.8001 
  68   0.0000       0.839145        22.8343 
  69   0.0000       0.839154        22.8345 
  70   0.0000       0.840936        22.8830 
  71   0.0000       0.850439        23.1416 
  72   0.0000       0.861807        23.4509 
  73   0.0000       0.861815        23.4512 
  74   0.0000       1.840223        50.0750 
  75   0.0000       1.840796        50.0906 
  76   0.0000       1.840802        50.0908 
  77   0.0000       1.841644        50.1137 
  78   0.0000       1.849959        50.3400 
  79   0.0000       1.854297        50.4580 
  80   0.0000       1.854306        50.4582 
  81   0.0000       1.865586        50.7652 
  82   0.0000       1.866739        50.7966 
  83   0.0000       2.008409        54.6516 
  84   0.0000       2.008796        54.6621 
  85   0.0000       2.008801        54.6622 
  86   0.0000       2.009342        54.6770 
  87   0.0000       2.013524        54.7908 
  88   0.0000       2.015362        54.8408 
  89   0.0000       2.015370        54.8410 
  90   0.0000       2.019481        54.9529 
  91   0.0000       2.020741        54.9872 
  92   0.0000       2.027906        55.1821 
  93   0.0000       2.027907        55.1821 
  94   0.0000       2.155066        58.6423 
  95   0.0000       2.156335        58.6769 
  96   0.0000       2.156340        58.6770 
  97   0.0000       2.158712        58.7415 
  98   0.0000       2.175580        59.2005 
  99   0.0000       2.190300        59.6011 
 100   0.0000       2.190305        59.6012 
 101   0.0000       2.403318        65.3976 
 102   0.0000       2.473234        67.3001 
 103   0.0000       2.475090        67.3506 
 104   0.0000       2.475100        67.3509 
 105   0.0000       2.486934        67.6729 
 106   0.0000       2.507921        68.2440 
 107   0.0000       3.209397        87.3321 
 108   0.0000       3.239986        88.1645 
 109   0.0000       3.240005        88.1650 
 110   0.0000       5.098416       138.7350 
 111   0.0000       5.098479       138.7367 
 112   0.0000       5.098481       138.7367 
 113   0.0000       5.098531       138.7381 
 114   0.0000       5.116919       139.2384 
 115   0.0000       5.122930       139.4020 
 116   0.0000       5.122940       139.4023 
 117   0.0000       5.141141       139.8976 
 118   0.0000       5.142595       139.9371 
 119   0.0000       6.132127       166.8637 
 120   0.0000       6.132428       166.8718 
 121   0.0000       6.132428       166.8719 
 122   0.0000       6.132712       166.8796 
 123   0.0000       6.148883       167.3196 
 124   0.0000       6.151623       167.3942 
 125   0.0000       6.151636       167.3945 
 126   0.0000       6.159492       167.6083 
 127   0.0000       6.162347       167.6860 
 128   0.0000       6.178075       168.1140 
 129   0.0000       6.178076       168.1140 
 130   0.0000       6.779458       184.4784 
 131   0.0000       6.780805       184.5151 
 132   0.0000       6.780807       184.5151 
 133   0.0000       6.783371       184.5849 
 134   0.0000       6.797138       184.9595 
 135   0.0000       6.810102       185.3123 
 136   0.0000       6.810105       185.3124 
 137   0.0000       8.336391       226.8447 
 138   0.0000       9.130007       248.4401 
 139   0.0000       9.133410       248.5327 
 140   0.0000       9.133414       248.5328 
 141   0.0000       9.144950       248.8467 
 142   0.0000       9.164935       249.3906 
 143   0.0000      10.285766       279.8899 
 144   0.0000      10.316266       280.7199 
 145   0.0000      10.316277       280.7202 
 146   0.0000      16.709569       454.6905 
 147   0.0000      37.801895      1028.6419 
 148   0.0000      37.820588      1029.1505 
 149   0.0000      37.820591      1029.1506 

                 SPIN DOWN ORBITALS
  NO   OCC          E(Eh)            E(eV) 
   0   1.0000    -786.283523    -21395.8624 
   1   1.0000    -109.750931     -2986.4747 
   2   1.0000     -98.997518     -2693.8594 
   3   1.0000     -98.992793     -2693.7308 
   4   1.0000     -98.992792     -2693.7308 
   5   1.0000     -18.865807      -513.3647 
   6   1.0000     -15.246189      -414.8699 
   7   1.0000     -15.233653      -414.5288 
   8   1.0000     -15.233652      -414.5287 
   9   1.0000      -9.077300      -247.0059 
  10   1.0000      -9.074385      -246.9266 
  11   1.0000      -9.074384      -246.9265 
  12   1.0000      -9.066670      -246.7166 
  13   1.0000      -9.065549      -246.6861 
  14   1.0000      -2.510758       -68.3212 
  15   1.0000      -1.509355       -41.0716 
  16   1.0000      -1.498111       -40.7657 
  17   1.0000      -1.498102       -40.7654 
  18   1.0000      -0.109919        -2.9910 
  19   0.0000      -0.104650        -2.8477 
  20   0.0000      -0.094976        -2.5844 
  21   0.0000      -0.093698        -2.5497 
  22   0.0000      -0.093690        -2.5494 
  23   0.0000      -0.075595        -2.0570 
  24   0.0000      -0.000735        -0.0200 
  25   0.0000      -0.000722        -0.0197 
  26   0.0000       0.012604         0.3430 
  27   0.0000       0.017955         0.4886 
  28   0.0000       0.049994         1.3604 
  29   0.0000       0.057787         1.5725 
  30   0.0000       0.057803         1.5729 
  31   0.0000       0.058894         1.6026 
  32   0.0000       0.059742         1.6257 
  33   0.0000       0.146618         3.9897 
  34   0.0000       0.162937         4.4337 
  35   0.0000       0.162948         4.4340 
  36   0.0000       0.171688         4.6719 
  37   0.0000       0.197558         5.3758 
  38   0.0000       0.215536         5.8650 
  39   0.0000       0.215542         5.8652 
  40   0.0000       0.219489         5.9726 
  41   0.0000       0.222197         6.0463 
  42   0.0000       0.313060         8.5188 
  43   0.0000       0.317579         8.6418 
  44   0.0000       0.317614         8.6427 
  45   0.0000       0.333648         9.0790 
  46   0.0000       0.333758         9.0820 
  47   0.0000       0.337174         9.1750 
  48   0.0000       0.337315         9.1788 
  49   0.0000       0.618131        16.8202 
  50   0.0000       0.623459        16.9652 
  51   0.0000       0.628750        17.1092 
  52   0.0000       0.632464        17.2102 
  53   0.0000       0.632537        17.2122 
  54   0.0000       0.637643        17.3512 
  55   0.0000       0.649027        17.6609 
  56   0.0000       0.649206        17.6658 
  57   0.0000       0.650718        17.7070 
  58   0.0000       0.653096        17.7716 
  59   0.0000       0.726908        19.7802 
  60   0.0000       0.743769        20.2390 
  61   0.0000       0.743777        20.2392 
  62   0.0000       0.745860        20.2959 
  63   0.0000       0.752673        20.4813 
  64   0.0000       0.846501        23.0345 
  65   0.0000       0.846512        23.0348 
  66   0.0000       0.852652        23.2018 
  67   0.0000       0.930122        25.3099 
  68   0.0000       0.933499        25.4018 
  69   0.0000       0.933507        25.4020 
  70   0.0000       0.940408        25.5898 
  71   0.0000       0.947925        25.7944 
  72   0.0000       0.947942        25.7948 
  73   0.0000       0.953572        25.9480 
  74   0.0000       1.938837        52.7584 
  75   0.0000       1.939654        52.7807 
  76   0.0000       1.939665        52.7810 
  77   0.0000       1.940103        52.7929 
  78   0.0000       1.945220        52.9321 
  79   0.0000       1.953701        53.1629 
  80   0.0000       1.956789        53.2469 
  81   0.0000       1.956823        53.2478 
  82   0.0000       1.959081        53.3093 
  83   0.0000       2.090689        56.8905 
  84   0.0000       2.091797        56.9207 
  85   0.0000       2.091803        56.9208 
  86   0.0000       2.093018        56.9539 
  87   0.0000       2.095026        57.0086 
  88   0.0000       2.095033        57.0087 
  89   0.0000       2.096083        57.0373 
  90   0.0000       2.107382        57.3448 
  91   0.0000       2.108304        57.3699 
  92   0.0000       2.108345        57.3710 
  93   0.0000       2.110271        57.4234 
  94   0.0000       2.256010        61.3891 
  95   0.0000       2.259331        61.4795 
  96   0.0000       2.259334        61.4796 
  97   0.0000       2.261939        61.5505 
  98   0.0000       2.273797        61.8732 
  99   0.0000       2.273801        61.8733 
 100   0.0000       2.278021        61.9881 
 101   0.0000       2.488961        67.7281 
 102   0.0000       2.559951        69.6598 
 103   0.0000       2.571322        69.9692 
 104   0.0000       2.574654        70.0599 
 105   0.0000       2.574662        70.0601 
 106   0.0000       2.591228        70.5109 
 107   0.0000       3.322818        90.4185 
 108   0.0000       3.325932        90.5032 
 109   0.0000       3.325935        90.5033 
 110   0.0000       5.217736       141.9818 
 111   0.0000       5.218814       142.0111 
 112   0.0000       5.218820       142.0113 
 113   0.0000       5.221217       142.0765 
 114   0.0000       5.230144       142.3194 
 115   0.0000       5.238212       142.5390 
 116   0.0000       5.238218       142.5392 
 117   0.0000       5.238669       142.5514 
 118   0.0000       5.239963       142.5866 
 119   0.0000       6.262610       170.4143 
 120   0.0000       6.263340       170.4341 
 121   0.0000       6.263345       170.4343 
 122   0.0000       6.264019       170.4526 
 123   0.0000       6.275500       170.7650 
 124   0.0000       6.275754       170.7719 
 125   0.0000       6.275758       170.7721 
 126   0.0000       6.287718       171.0975 
 127   0.0000       6.287781       171.0992 
 128   0.0000       6.287787       171.0994 
 129   0.0000       6.287910       171.1027 
 130   0.0000       6.845562       186.2772 
 131   0.0000       6.846714       186.3086 
 132   0.0000       6.846720       186.3087 
 133   0.0000       6.846774       186.3102 
 134   0.0000       6.858762       186.6364 
 135   0.0000       6.860349       186.6796 
 136   0.0000       6.860349       186.6796 
 137   0.0000       8.430169       229.3966 
 138   0.0000       9.191320       250.1085 
 139   0.0000       9.195728       250.2285 
 140   0.0000       9.195734       250.2286 
 141   0.0000       9.196042       250.2370 
 142   0.0000       9.211372       250.6542 
 143   0.0000      10.365313       282.0545 
 144   0.0000      10.376790       282.3668 
 145   0.0000      10.376795       282.3669 
 146   0.0000      16.764392       456.1823 
 147   0.0000      37.837061      1029.5988 
 148   0.0000      37.847869      1029.8929 
 149   0.0000      37.847872      1029.8930 

                    ********************************
                    * MULLIKEN POPULATION ANALYSIS *
                    ********************************

--------------------------------------------
MULLIKEN ATOMIC CHARGES AND SPIN POPULATIONS
--------------------------------------------
   0 Tc:    0.000000    5.000000
Sum of atomic charges         :    0.0000000
Sum of atomic spin populations:    5.0000000

-----------------------------------------------------
MULLIKEN REDUCED ORBITAL CHARGES AND SPIN POPULATIONS
-----------------------------------------------------
CHARGE
  0 Tcs       :     9.000137  s :     9.000137
      pz      :     5.999928  p :    17.999726
      px      :     5.999901
      py      :     5.999897
      dz2     :     3.017791  d :    15.999538
      dxz     :     3.001543
      dyz     :     3.241553
      dx2y2   :     3.259842
      dxy     :     3.478809
      f0      :     0.000043  f :     0.000254
      f+1     :     0.000039
      f-1     :     0.000026
      f+2     :     0.000035
      f-2     :     0.000044
      f+3     :     0.000025
      f-3     :     0.000042
      g0      :     0.000049  g :     0.000324
      g+1     :     0.000045
      g-1     :     0.000051
      g+2     :     0.000031
      g-2     :     0.000039
      g+3     :     0.000038
      g-3     :     0.000036
      g+4     :     0.000010
      g-4     :     0.000026
      h0      :     0.000000  h :     0.000020
      h+1     :     0.000000
      h-1     :     0.000000
      h+2     :     0.000001
      h-2     :     0.000001
      h+3     :     0.000002
      h-3     :     0.000002
      h+4     :     0.000003
      h-4     :     0.000004
      h+5     :     0.000004
      h-5     :     0.000005

SPIN
  0 Tcs       :     1.000172  s :     1.000172
      pz      :    -0.000042  p :    -0.000124
      px      :    -0.000041
      py      :    -0.000041
      dz2     :     0.981954  d :     3.999555
      dxz     :     0.998207
      dyz     :     0.758248
      dx2y2   :     0.740072
      dxy     :     0.521074
      f0      :     0.000040  f :     0.000129
      f+1     :     0.000031
      f-1     :     0.000017
      f+2     :     0.000016
      f-2     :     0.000027
      f+3     :    -0.000012
      f-3     :     0.000011
      g0      :     0.000044  g :     0.000273
      g+1     :     0.000043
      g-1     :     0.000037
      g+2     :     0.000030
      g-2     :     0.000038
      g+3     :     0.000024
      g-3     :     0.000032
      g+4     :     0.000006
      g-4     :     0.000018
      h0      :    -0.000000  h :    -0.000005
      h+1     :    -0.000000
      h-1     :    -0.000000
      h+2     :    -0.000000
      h-2     :    -0.000000
      h+3     :    -0.000000
      h-3     :    -0.000000
      h+4     :    -0.000001
      h-4     :    -0.000001
      h+5     :    -0.000001
      h-5     :    -0.000001


                     *******************************
                     * LOEWDIN POPULATION ANALYSIS *
                     *******************************

-------------------------------------------
LOEWDIN ATOMIC CHARGES AND SPIN POPULATIONS
-------------------------------------------
   0 Tc:    0.000000    5.000000

----------------------------------------------------
LOEWDIN REDUCED ORBITAL CHARGES AND SPIN POPULATIONS
----------------------------------------------------
CHARGE
  0 Tcs       :     9.000137  s :     9.000137
      pz      :     5.999928  p :    17.999726
      px      :     5.999901
      py      :     5.999897
      dz2     :     3.017791  d :    15.999538
      dxz     :     3.001543
      dyz     :     3.241553
      dx2y2   :     3.259842
      dxy     :     3.478809
      f0      :     0.000043  f :     0.000254
      f+1     :     0.000039
      f-1     :     0.000026
      f+2     :     0.000035
      f-2     :     0.000044
      f+3     :     0.000025
      f-3     :     0.000042
      g0      :     0.000049  g :     0.000324
      g+1     :     0.000045
      g-1     :     0.000051
      g+2     :     0.000031
      g-2     :     0.000039
      g+3     :     0.000038
      g-3     :     0.000036
      g+4     :     0.000010
      g-4     :     0.000026
      h0      :     0.000000  h :     0.000020
      h+1     :     0.000000
      h-1     :     0.000000
      h+2     :     0.000001
      h-2     :     0.000001
      h+3     :     0.000002
      h-3     :     0.000002
      h+4     :     0.000003
      h-4     :     0.000004
      h+5     :     0.000004
      h-5     :     0.000005

SPIN
  0 Tcs       :     1.000172  s :     1.000172
      pz      :    -0.000042  p :    -0.000124
      px      :    -0.000041
      py      :    -0.000041
      dz2     :     0.981954  d :     3.999555
      dxz     :     0.998207
      dyz     :     0.758248
      dx2y2   :     0.740072
      dxy     :     0.521074
      f0      :     0.000040  f :     0.000129
      f+1     :     0.000031
      f-1     :     0.000017
      f+2     :     0.000016
      f-2     :     0.000027
      f+3     :    -0.000012
      f-3     :     0.000011
      g0      :     0.000044  g :     0.000273
      g+1     :     0.000043
      g-1     :     0.000037
      g+2     :     0.000030
      g-2     :     0.000038
      g+3     :     0.000024
      g-3     :     0.000032
      g+4     :     0.000006
      g-4     :     0.000018
      h0      :    -0.000000  h :    -0.000005
      h+1     :    -0.000000
      h-1     :    -0.000000
      h+2     :    -0.000000
      h-2     :    -0.000000
      h+3     :    -0.000000
      h-3     :    -0.000000
      h+4     :    -0.000001
      h-4     :    -0.000001
      h+5     :    -0.000001
      h-5     :    -0.000001


                      *****************************
                      * MAYER POPULATION ANALYSIS *
                      *****************************

  NA   - Mulliken gross atomic population
  ZA   - Total nuclear charge
  QA   - Mulliken gross atomic charge
  VA   - Mayer's total valence
  BVA  - Mayer's bonded valence
  FA   - Mayer's free valence

  ATOM       NA         ZA         QA         VA         BVA        FA
  0 Tc    43.0000    43.0000     0.0000     5.0037     0.0000     5.0037

  Mayer bond orders larger than 0.100000


-------
TIMINGS
-------

Total SCF time: 0 days 0 hours 0 min 35 sec 

Total time                  ....      35.562 sec
Sum of individual times     ....      35.163 sec  ( 98.9%)

Fock matrix formation       ....      33.529 sec  ( 94.3%)
  XC integration            ....       2.974 sec  (  8.9% of F)
    Basis function eval.    ....       0.303 sec  ( 10.2% of XC)
    Density eval.           ....       0.475 sec  ( 16.0% of XC)
    XC-Functional eval.     ....       0.137 sec  (  4.6% of XC)
    XC-Potential eval.      ....       0.915 sec  ( 30.8% of XC)
Diagonalization             ....       0.559 sec  (  1.6%)
Density matrix formation    ....       0.033 sec  (  0.1%)
Population analysis         ....       0.007 sec  (  0.0%)
Initial guess               ....       0.016 sec  (  0.0%)
Orbital Transformation      ....       0.000 sec  (  0.0%)
Orbital Orthonormalization  ....       0.000 sec  (  0.0%)
DIIS solution               ....       0.356 sec  (  1.0%)
Grid generation             ....       0.662 sec  (  1.9%)

Maximum memory used throughout the entire SCF-calculation: 234.4 MB

-------------------------   --------------------
FINAL SINGLE POINT ENERGY     -4331.309997586613
-------------------------   --------------------


                            ***************************************
                            *     ORCA property calculations      *
                            ***************************************

                                    ---------------------
                                    Active property flags
                                    ---------------------
   (+) Dipole Moment


------------------------------------------------------------------------------
                       ORCA ELECTRIC PROPERTIES CALCULATION
------------------------------------------------------------------------------

Dipole Moment Calculation                       ... on
Quadrupole Moment Calculation                   ... off
Polarizability Calculation                      ... off
GBWName                                         ... Tc_sapporo-qzp-2012-diffuse_pbe.gbw
Electron density                                ... Tc_sapporo-qzp-2012-diffuse_pbe.scfp
The origin for moment calculation is the CENTER OF MASS  = ( 0.000000,  0.000000  0.000000)

-------------
DIPOLE MOMENT
-------------
                                X             Y             Z
Electronic contribution:      0.00000       0.00000       0.00000
Nuclear contribution   :      0.00000       0.00000       0.00000
                        -----------------------------------------
Total Dipole Moment    :      0.00000       0.00000       0.00000
                        -----------------------------------------
Magnitude (a.u.)       :      0.00000
Magnitude (Debye)      :      0.00000



--------------------
Rotational spectrum 
--------------------
 
Rotational constants in cm-1:     0.000000     0.000000     0.000000 
Rotational constants in MHz :     0.000000     0.000000     0.000000 

 Dipole components along the rotational axes: 
x,y,z [a.u.] :     0.000000     0.000000     0.000000 
x,y,z [Debye]:     0.000000     0.000000     0.000000 

 

Timings for individual modules:

Sum of individual times         ...       37.255 sec (=   0.621 min)
GTO integral calculation        ...        0.531 sec (=   0.009 min)   1.4 %
Relativistic integrals          ...        0.930 sec (=   0.016 min)   2.5 %
SCF iterations                  ...       35.794 sec (=   0.597 min)  96.1 %
                             ****ORCA TERMINATED NORMALLY****
TOTAL RUN TIME: 0 days 0 hours 0 minutes 37 seconds 665 msec
