
                                 *****************
                                 * O   R   C   A *
                                 *****************

                                            #,                                       
                                            ###                                      
                                            ####                                     
                                            #####                                    
                                            ######                                   
                                           ########,                                 
                                     ,,################,,,,,                         
                               ,,#################################,,                 
                          ,,##########################################,,             
                       ,#########################################, ''#####,          
                    ,#############################################,,   '####,        
                  ,##################################################,,,,####,       
                ,###########''''           ''''###############################       
              ,#####''   ,,,,##########,,,,          '''####'''          '####       
            ,##' ,,,,###########################,,,                        '##       
           ' ,,###''''                  '''############,,,                           
         ,,##''                                '''############,,,,        ,,,,,,###''
      ,#''                                            '''#######################'''  
     '                                                          ''''####''''         
             ,#######,   #######,   ,#######,      ##                                
            ,#'     '#,  ##    ##  ,#'     '#,    #''#        ######   ,####,        
            ##       ##  ##   ,#'  ##            #'  '#       #        #'  '#        
            ##       ##  #######   ##           ,######,      #####,   #    #        
            '#,     ,#'  ##    ##  '#,     ,#' ,#      #,         ##   #,  ,#        
             '#######'   ##     ##  '#######'  #'      '#     #####' # '####'        



                  #######################################################
                  #                        -***-                        #
                  #          Department of theory and spectroscopy      #
                  #    Directorship and core code : Frank Neese         #
                  #        Max Planck Institute fuer Kohlenforschung    #
                  #                Kaiser Wilhelm Platz 1               #
                  #                 D-45470 Muelheim/Ruhr               #
                  #                      Germany                        #
                  #                                                     #
                  #                  All rights reserved                #
                  #                        -***-                        #
                  #######################################################


                         Program Version 5.0.1 -  RELEASE  -


 With contributions from (in alphabetic order):
   Daniel Aravena         : Magnetic Suceptibility
   Michael Atanasov       : Ab Initio Ligand Field Theory (pilot matlab implementation)
   Alexander A. Auer      : GIAO ZORA, VPT2 properties, NMR spectrum
   Ute Becker             : Parallelization
   Giovanni Bistoni       : ED, misc. LED, open-shell LED, HFLD
   Martin Brehm           : Molecular dynamics
   Dmytro Bykov           : SCF Hessian
   Vijay G. Chilkuri      : MRCI spin determinant printing, contributions to CSF-ICE
   Dipayan Datta          : RHF DLPNO-CCSD density
   Achintya Kumar Dutta   : EOM-CC, STEOM-CC
   Dmitry Ganyushin       : Spin-Orbit,Spin-Spin,Magnetic field MRCI
   Miquel Garcia          : C-PCM and meta-GGA Hessian, CC/C-PCM, Gaussian charge scheme
   Yang Guo               : DLPNO-NEVPT2, F12-NEVPT2, CIM, IAO-localization
   Andreas Hansen         : Spin unrestricted coupled pair/coupled cluster methods
   Benjamin Helmich-Paris : MC-RPA, TRAH-SCF, COSX integrals
   Lee Huntington         : MR-EOM, pCC
   Robert Izsak           : Overlap fitted RIJCOSX, COSX-SCS-MP3, EOM
   Marcus Kettner         : VPT2
   Christian Kollmar      : KDIIS, OOCD, Brueckner-CCSD(T), CCSD density, CASPT2, CASPT2-K
   Simone Kossmann        : Meta GGA functionals, TD-DFT gradient, OOMP2, MP2 Hessian
   Martin Krupicka        : Initial AUTO-CI
   Lucas Lang             : DCDCAS
   Marvin Lechner         : AUTO-CI (C++ implementation), FIC-MRCC
   Dagmar Lenk            : GEPOL surface, SMD
   Dimitrios Liakos       : Extrapolation schemes; Compound Job, initial MDCI parallelization
   Dimitrios Manganas     : Further ROCIS development; embedding schemes
   Dimitrios Pantazis     : SARC Basis sets
   Anastasios Papadopoulos: AUTO-CI, single reference methods and gradients
   Taras Petrenko         : DFT Hessian,TD-DFT gradient, ASA, ECA, R-Raman, ABS, FL, XAS/XES, NRVS
   Peter Pinski           : DLPNO-MP2, DLPNO-MP2 Gradient
   Christoph Reimann      : Effective Core Potentials
   Marius Retegan         : Local ZFS, SOC
   Christoph Riplinger    : Optimizer, TS searches, QM/MM, DLPNO-CCSD(T), (RO)-DLPNO pert. Triples
   Tobias Risthaus        : Range-separated hybrids, TD-DFT gradient, RPA, STAB
   Michael Roemelt        : Original ROCIS implementation
   Masaaki Saitow         : Open-shell DLPNO-CCSD energy and density
   Barbara Sandhoefer     : DKH picture change effects
   Avijit Sen             : IP-ROCIS
   Kantharuban Sivalingam : CASSCF convergence, NEVPT2, FIC-MRCI
   Bernardo de Souza      : ESD, SOC TD-DFT
   Georgi Stoychev        : AutoAux, RI-MP2 NMR, DLPNO-MP2 response
   Willem Van den Heuvel  : Paramagnetic NMR
   Boris Wezisla          : Elementary symmetry handling
   Frank Wennmohs         : Technical directorship


 We gratefully acknowledge several colleagues who have allowed us to
 interface, adapt or use parts of their codes:
   Stefan Grimme, W. Hujo, H. Kruse, P. Pracht,  : VdW corrections, initial TS optimization,
                  C. Bannwarth, S. Ehlert          DFT functionals, gCP, sTDA/sTD-DF
   Ed Valeev, F. Pavosevic, A. Kumar             : LibInt (2-el integral package), F12 methods
   Garnet Chan, S. Sharma, J. Yang, R. Olivares  : DMRG
   Ulf Ekstrom                                   : XCFun DFT Library
   Mihaly Kallay                                 : mrcc  (arbitrary order and MRCC methods)
   Jiri Pittner, Ondrej Demel                    : Mk-CCSD
   Frank Weinhold                                : gennbo (NPA and NBO analysis)
   Christopher J. Cramer and Donald G. Truhlar   : smd solvation model
   Lars Goerigk                                  : TD-DFT with DH, B97 family of functionals
   V. Asgeirsson, H. Jonsson                     : NEB implementation
   FAccTs GmbH                                   : IRC, NEB, NEB-TS, DLPNO-Multilevel, CI-OPT
                                                   MM, QMMM, 2- and 3-layer-ONIOM, Crystal-QMMM,
                                                   LR-CPCM, SF, NACMEs, symmetry and pop. for TD-DFT,
                                                   nearIR, NL-DFT gradient (VV10), updates on ESD,
                                                   ML-optimized integration grids
   S Lehtola, MJT Oliveira, MAL Marques          : LibXC Library
   Liviu Ungur et al                             : ANISO software


 Your calculation uses the libint2 library for the computation of 2-el integrals
 For citations please refer to: http://libint.valeyev.net

 Your ORCA version has been built with support for libXC version: 5.1.0
 For citations please refer to: https://tddft.org/programs/libxc/

 This ORCA versions uses:
   CBLAS   interface :  Fast vector & matrix operations
   LAPACKE interface :  Fast linear algebra routines
   SCALAPACK package :  Parallel linear algebra routines
   Shared memory     :  Shared parallel matrices
   BLAS/LAPACK       :  OpenBLAS 0.3.15  USE64BITINT DYNAMIC_ARCH NO_AFFINITY Haswell SINGLE_THREADED
        Core in use  :  Haswell
   Copyright (c) 2011-2014, The OpenBLAS Project


SCAN-COORDS

Reading of a custom basis requested
Basis file         : Te_ano-rcc-vqzp.basis
READING GTO-BASIS: TELLURIUM
Basis successfully read

================================================================================

----- Orbital basis set information -----
================================================================================
                                        WARNINGS
                       Please study these warnings very carefully!
================================================================================


INFO   : the flag for use of the SHARK integral package has been found!

================================================================================
                                       INPUT FILE
================================================================================
NAME = Te_ano-rcc-vqzp_pbe.inp
|  1> !uks pbe nori verytightscf soscf notrah defgrid3
|  2> 
|  3> %pal
|  4>   nprocs 32
|  5> end
|  6> %coords
|  7>   charge 0
|  8>   mult 3
|  9>   units bohrs
| 10>   coords
| 11>     Te 0.0 0.0 0.0
| 12>   end
| 13> end
| 14> %basis
| 15>   gtoname "Te_ano-rcc-vqzp.basis"
| 16>   delECP Te
| 17> end
| 18> %rel
| 19>   method zora
| 20>   modelpot 1, 0, 0, 0
| 21>   c 137.035999084
| 22> endd                         ****END OF INPUT****
================================================================================

                       ****************************
                       * Single Point Calculation *
                       ****************************

---------------------------------
CARTESIAN COORDINATES (ANGSTROEM)
---------------------------------
  Te     0.000000    0.000000    0.000000

----------------------------
CARTESIAN COORDINATES (A.U.)
----------------------------
  NO LB      ZA    FRAG     MASS         X           Y           Z
   0 Te   52.0000    0   127.600    0.000000    0.000000    0.000000

--------------------------------
INTERNAL COORDINATES (ANGSTROEM)
--------------------------------
 Te     0   0   0     0.000000000000     0.00000000     0.00000000

---------------------------
INTERNAL COORDINATES (A.U.)
---------------------------
 Te     0   0   0     0.000000000000     0.00000000     0.00000000

---------------------
BASIS SET INFORMATION
---------------------
There are 1 groups of distinct atoms

 Group   1 Type Te  : 176s133p65d15f6g contracted to 8s7p5d3f2g pattern {2222222222222222/19191919191919/1313131313/555/33}

Atom   0Te   basis set group =>   1


           ************************************************************
           *        Program running with 32 parallel MPI-processes    *
           *              working on a common directory               *
           ************************************************************
------------------------------------------------------------------------------
                           ORCA GTO INTEGRAL CALCULATION
------------------------------------------------------------------------------
------------------------------------------------------------------------------
                   ___                                                        
                  /   \      - P O W E R E D   B Y -                         
                 /     \                                                     
                 |  |  |   _    _      __       _____    __    __             
                 |  |  |  | |  | |    /  \     |  _  \  |  |  /  |          
                  \  \/   | |  | |   /    \    | | | |  |  | /  /          
                 / \  \   | |__| |  /  /\  \   | |_| |  |  |/  /          
                |  |  |   |  __  | /  /__\  \  |    /   |      \           
                |  |  |   | |  | | |   __   |  |    \   |  |\   \          
                \     /   | |  | | |  |  |  |  | |\  \  |  | \   \       
                 \___/    |_|  |_| |__|  |__|  |_| \__\ |__|  \__/        
                                                                              
                      - O R C A' S   B I G   F R I E N D -                    
                                      &                                       
                       - I N T E G R A L  F E E D E R -                       
                                                                              
 v1 FN, 2020, v2 2021                                                         
------------------------------------------------------------------------------


Reading SHARK input file Te_ano-rcc-vqzp_pbe.SHARKINP.tmp ... ok
----------------------
SHARK INTEGRAL PACKAGE
----------------------

Number of atoms                             ...      1
Number of basis functions                   ...     93
Number of shells                            ...     25
Maximum angular momentum                    ...      4
Integral batch strategy                     ... SHARK/LIBINT Hybrid
RI-J (if used) integral strategy            ... SPLIT-RIJ (Revised 2003 algorithm where possible)
Printlevel                                  ...      1
Contraction scheme used                     ... SEGMENTED contraction
Coulomb Range Separation                    ... NOT USED
Exchange Range Separation                   ... NOT USED
Finite Nucleus Model                        ... NOT USED
Auxiliary Coulomb fitting basis             ... NOT available
Auxiliary J/K fitting basis                 ... NOT available
Auxiliary Correlation fitting basis         ... NOT available
Auxiliary 'external' fitting basis          ... NOT available
Integral threshold                          ...     1.000000e-12
Primitive cut-off                           ...     1.000000e-14
Primitive pair pre-selection threshold      ...     1.000000e-14

Calculating pre-screening integrals         ... done ( 28.8 sec) Dimension = 25
Organizing shell pair data                  ... done (  0.5 sec)
Shell pair information
Total number of shell pairs                 ...       325
Shell pairs after pre-screening             ...       325
Total number of primitive shell pairs       ...     81681
Primitive shell pairs kept                  ...     81681
          la=0 lb=0:     36 shell pairs
          la=1 lb=0:     56 shell pairs
          la=1 lb=1:     28 shell pairs
          la=2 lb=0:     40 shell pairs
          la=2 lb=1:     35 shell pairs
          la=2 lb=2:     15 shell pairs
          la=3 lb=0:     24 shell pairs
          la=3 lb=1:     21 shell pairs
          la=3 lb=2:     15 shell pairs
          la=3 lb=3:      6 shell pairs
          la=4 lb=0:     16 shell pairs
          la=4 lb=1:     14 shell pairs
          la=4 lb=2:     10 shell pairs
          la=4 lb=3:      6 shell pairs
          la=4 lb=4:      3 shell pairs

Calculating one electron integrals          ... done (  0.2 sec)
Calculating Nuclear repulsion               ... done (  0.0 sec) ENN=      0.000000000000 Eh

SHARK setup successfully completed in  30.4 seconds

Maximum memory used throughout the entire GTOINT-calculation: 313.8 MB


           ************************************************************
           *        Program running with 32 parallel MPI-processes    *
           *              working on a common directory               *
           ************************************************************
------------------------------------------------------------------------------
                          ORCA RELATIVISTIC HAMILTONIAN
------------------------------------------------------------------------------

Relativistic Method            ... ZORA(MP)
Treatment of potential         ... Van Wuellen
Nucleus model                  ... Point Nucleus
Speed of light used            ... 137.03599908400000


            *************************************************
            *         ZERO ORDER REGULAR APPROXIMATION      *
            *                     ZORA(MP)                  *
            *            Programmed by FN according to      *
            *                   C. van Wuellen              *
            *       J. Chem. Phys. (1998) vol 109, 392-399  *
            *************************************************

Terms included in model potential: +V(e,N)
Basis function cutoff value   ... 1.000000e-12
Loading the fitted atomic densities  (DKH4)  ... done
Calculating the cutoffs                      ... done
Number of fit functions                      ... 29
Setting up the integration grid ... done

Maximum memory used throughout the entire REL-calculation: 12.1 MB


           ************************************************************
           *        Program running with 32 parallel MPI-processes    *
           *              working on a common directory               *
           ************************************************************
-------------------------------------------------------------------------------
                                 ORCA SCF
-------------------------------------------------------------------------------

------------
SCF SETTINGS
------------
Hamiltonian:
 Density Functional     Method          .... DFT(GTOs)
 Exchange Functional    Exchange        .... PBE
   PBE kappa parameter   XKappa         ....  0.804000
   PBE mue parameter    XMuePBE         ....  0.219520
 Correlation Functional Correlation     .... PBE
   PBE beta parameter  CBetaPBE         ....  0.066725
 LDA part of GGA corr.  LDAOpt          .... PW91-LDA
 Gradients option       PostSCFGGA      .... off
   Density functional embedding theory  .... OFF
   NL short-range parameter             ....  6.400000

Relativistic Settings:
 Scalar relativistic method             .... ZORA
 Speed of light used       Velit        ....       137.035999
Orbital energies will be scaled


General Settings:
 Integral files         IntName         .... Te_ano-rcc-vqzp_pbe
 Hartree-Fock type      HFTyp           .... UHF
 Total Charge           Charge          ....    0
 Multiplicity           Mult            ....    3
 Number of Electrons    NEL             ....   52
 Basis Dimension        Dim             ....   93
 Nuclear Repulsion      ENuc            ....      0.0000000000 Eh

Convergence Acceleration:
 DIIS                   CNVDIIS         .... on
   Start iteration      DIISMaxIt       ....    12
   Startup error        DIISStart       ....  0.200000
   # of expansion vecs  DIISMaxEq       ....     5
   Bias factor          DIISBfac        ....   1.050
   Max. coefficient     DIISMaxC        ....  10.000
 Trust-Rad. Augm. Hess. CNVTRAH         .... off
 SOSCF                  CNVSOSCF        .... on
   Start iteration      SOSCFMaxIt      ....   150
   Startup grad/error   SOSCFStart      ....  0.003300
 Level Shifting         CNVShift        .... on
   Level shift para.    LevelShift      ....    0.2500
   Turn off err/grad.   ShiftErr        ....    0.0010
 Zerner damping         CNVZerner       .... off
 Static damping         CNVDamp         .... on
   Fraction old density DampFac         ....    0.7000
   Max. Damping (<1)    DampMax         ....    0.9800
   Min. Damping (>=0)   DampMin         ....    0.0000
   Turn off err/grad.   DampErr         ....    0.1000
 Fernandez-Rico         CNVRico         .... off

SCF Procedure:
 Maximum # iterations   MaxIter         ....   125
 SCF integral mode      SCFMode         .... Direct
   Integral package                     .... SHARK and LIBINT hybrid scheme
 Reset frequency        DirectResetFreq ....    20
 Integral Threshold     Thresh          ....  1.000e-12 Eh
 Primitive CutOff       TCut            ....  1.000e-14 Eh

Convergence Tolerance:
 Convergence Check Mode ConvCheckMode   .... Total+1el-Energy
 Convergence forced     ConvForced      .... 0
 Energy Change          TolE            ....  1.000e-09 Eh
 1-El. energy change                    ....  1.000e-06 Eh
 Orbital Gradient       TolG            ....  2.000e-06
 Orbital Rotation angle TolX            ....  2.000e-06
 DIIS Error             TolErr          ....  1.000e-08


Diagonalization of the overlap matrix:
Smallest eigenvalue                        ... 1.000e+00
Time for diagonalization                   ...    0.011 sec
Threshold for overlap eigenvalues          ... 1.000e-08
Number of eigenvalues below threshold      ... 0
Time for construction of square roots      ...    0.071 sec
Total time needed                          ...    0.083 sec

Time for model grid setup =    0.076 sec

------------------------------
INITIAL GUESS: MODEL POTENTIAL
------------------------------
Loading ZORA relativistic densities                ... done
Calculating cut-offs                               ... done
Initializing the effective Hamiltonian             ... done
Setting up the integral package (SHARK)            ... done
Starting the Coulomb interaction                   ... done (   0.9 sec)
Reading the grid                                   ... done
Mapping shells                                     ... done
Starting the XC term evaluation                    ... done (   0.1 sec)
  promolecular density results
     # of electrons  =     52.000403147
     EX              =   -182.082590942
     EC              =     -2.766003273
     EX+EC           =   -184.848594215
Transforming the Hamiltonian                       ... done (   0.0 sec)
Diagonalizing the Hamiltonian                      ... done (   0.0 sec)
Back transforming the eigenvectors                 ... done (   0.0 sec)
Now organizing SCF variables                       ... done
                      ------------------
                      INITIAL GUESS DONE (   1.5 sec)
                      ------------------
-------------------
DFT GRID GENERATION
-------------------

General Integration Accuracy     IntAcc      ... 4.959
Radial Grid Type                 RadialGrid  ... OptM3 with GC (2021)
Angular Grid (max. ang.)         AngularGrid ... 6 (Lebedev-590)
Angular grid pruning method      GridPruning ... 4 (adaptive)
Weight generation scheme         WeightScheme... Becke
Basis function cutoff            BFCut       ... 1.0000e-12
Integration weight cutoff        WCut        ... 1.0000e-14
Angular grids for H and He will be reduced by one unit
Partially contracted basis set               ... off
Rotationally invariant grid construction     ... off

Total number of grid points                  ...    32866
Total number of batches                      ...      514
Average number of points per batch           ...       63
Average number of grid points per atom       ...    32866
Time for grid setup =    0.987 sec

--------------
SCF ITERATIONS
--------------
ITER       Energy         Delta-E        Max-DP      RMS-DP      [F,P]     Damp
               ***  Starting incremental Fock matrix formation  ***
  0  -6908.3051695399   0.000000000000 0.01255665  0.00029005  0.3315864 0.7000
  1  -6908.3216322091  -0.016462669294 0.01094383  0.00019477  0.2319981 0.7000
                               ***Turning on DIIS***
  2  -6908.3300158090  -0.008383599850 0.00717817  0.00011791  0.1623026 0.7000
  3  -6908.3353044206  -0.005288611632 0.00353783  0.00007187  0.1135313 0.7000
  4  -6908.3388847276  -0.003580306956 0.00825903  0.00016767  0.0794309 0.0000
                      *** Initiating the SOSCF procedure ***
                           *** Shutting down DIIS ***
                      *** Re-Reading the Fockian *** 
                      *** Removing any level shift *** 
ITER      Energy       Delta-E        Grad      Rot      Max-DP    RMS-DP
  5  -6908.34724640  -0.0083616750  0.000760  0.000760  0.000742  0.000015
               *** Restarting incremental Fock matrix formation ***
  6  -6908.34724961  -0.0000032064  0.000570  0.000907  0.000622  0.000012
  7  -6908.34724962  -0.0000000070  0.000601  0.000278  0.000303  0.000006
  8  -6908.34725132  -0.0000017021  0.000013  0.000033  0.000023  0.000000
  9  -6908.34725132  -0.0000000015  0.000006  0.000007  0.000007  0.000000
                 **** Energy Check signals convergence ****
              ***Rediagonalizing the Fockian in SOSCF/NRSCF***

               *****************************************************
               *                     SUCCESS                       *
               *           SCF CONVERGED AFTER  10 CYCLES          *
               *****************************************************


----------------
TOTAL SCF ENERGY
----------------

Total Energy       :        -6908.34725132 Eh         -187985.68572 eV

Components:
Nuclear Repulsion  :            0.00000000 Eh               0.00000 eV
Electronic Energy  :        -6908.34725132 Eh         -187985.68572 eV
One Electron Energy:        -9441.61106639 Eh         -256919.29864 eV
Two Electron Energy:         2533.26381507 Eh           68933.61293 eV

Virial components:
Potential Energy   :       -14334.32688051 Eh         -390056.86453 eV
Kinetic Energy     :         7425.97962919 Eh          202071.17881 eV
Virial Ratio       :            1.93029440


DFT components:
N(Alpha)           :       26.999999998249 electrons
N(Beta)            :       24.999999998453 electrons
N(Total)           :       51.999999996702 electrons
E(X)               :     -174.824099138272 Eh       
E(C)               :       -2.765599141225 Eh       
E(XC)              :     -177.589698279497 Eh       
DFET-embed. en.    :        0.000000000000 Eh       

---------------
SCF CONVERGENCE
---------------

  Last Energy change         ...   -2.5739e-10  Tolerance :   1.0000e-09
  Last MAX-Density change    ...    2.4621e-07  Tolerance :   1.0000e-08
  Last RMS-Density change    ...    5.8353e-09  Tolerance :   1.0000e-09
  Last Orbital Gradient      ...    6.4164e-07  Tolerance :   2.0000e-06
  Last Orbital Rotation      ...    4.4553e-07  Tolerance :   2.0000e-06

             **** THE GBW FILE WAS UPDATED (Te_ano-rcc-vqzp_pbe.gbw) ****
             **** DENSITY Te_ano-rcc-vqzp_pbe.scfp WAS UPDATED ****
             **** ENERGY FILE WAS UPDATED (Te_ano-rcc-vqzp_pbe.en.tmp) ****
----------------------
UHF SPIN CONTAMINATION
----------------------

Warning: in a DFT calculation there is little theoretical justification to 
         calculate <S**2> as in Hartree-Fock theory. We will do it anyways
         but you should keep in mind that the values have only limited relevance

Expectation value of <S**2>     :     2.003292
Ideal value S*(S+1) for S=1.0   :     2.000000
Deviation                       :     0.003292

             **** THE GBW FILE WAS UPDATED (Te_ano-rcc-vqzp_pbe.gbw) ****
             **** DENSITY Te_ano-rcc-vqzp_pbe.scfp WAS UPDATED ****
----------------
ORBITAL ENERGIES
----------------
                 SPIN UP ORBITALS
  NO   OCC          E(Eh)            E(eV) 
   0   1.0000   -1203.546689    -32750.1704 
   1   1.0000    -179.675819     -4889.2276 
   2   1.0000    -162.224461     -4414.3520 
   3   1.0000    -162.224461     -4414.3520 
   4   1.0000    -162.221410     -4414.2690 
   5   1.0000     -35.566723      -967.8197 
   6   1.0000     -29.793134      -810.7124 
   7   1.0000     -29.793134      -810.7124 
   8   1.0000     -29.786541      -810.5330 
   9   1.0000     -20.725151      -563.9600 
  10   1.0000     -20.725151      -563.9600 
  11   1.0000     -20.720675      -563.8382 
  12   1.0000     -20.720675      -563.8382 
  13   1.0000     -20.719177      -563.7975 
  14   1.0000      -6.034526      -164.2078 
  15   1.0000      -4.232128      -115.1621 
  16   1.0000      -4.232128      -115.1621 
  17   1.0000      -4.217104      -114.7532 
  18   1.0000      -1.541320       -41.9414 
  19   1.0000      -1.541320       -41.9414 
  20   1.0000      -1.527775       -41.5729 
  21   1.0000      -1.527775       -41.5729 
  22   1.0000      -1.523387       -41.4535 
  23   1.0000      -0.572803       -15.5868 
  24   1.0000      -0.251672        -6.8483 
  25   1.0000      -0.251672        -6.8483 
  26   1.0000      -0.216022        -5.8783 
  27   0.0000       0.061477         1.6729 
  28   0.0000       0.061477         1.6729 
  29   0.0000       0.072807         1.9812 
  30   0.0000       0.124819         3.3965 
  31   0.0000       0.124819         3.3965 
  32   0.0000       0.142611         3.8806 
  33   0.0000       0.144554         3.9335 
  34   0.0000       0.144554         3.9335 
  35   0.0000       0.161348         4.3905 
  36   0.0000       0.509894        13.8749 
  37   0.0000       0.509894        13.8749 
  38   0.0000       0.529539        14.4095 
  39   0.0000       0.529539        14.4095 
  40   0.0000       0.542483        14.7617 
  41   0.0000       0.542483        14.7617 
  42   0.0000       0.546894        14.8817 
  43   0.0000       0.685134        18.6435 
  44   0.0000       0.685134        18.6435 
  45   0.0000       0.709818        19.3151 
  46   0.0000       1.038338        28.2546 
  47   0.0000       1.038338        28.2546 
  48   0.0000       1.059845        28.8399 
  49   0.0000       1.059845        28.8399 
  50   0.0000       1.067720        29.0541 
  51   0.0000       1.549469        42.1632 
  52   0.0000       1.549469        42.1632 
  53   0.0000       1.567602        42.6566 
  54   0.0000       1.567602        42.6566 
  55   0.0000       1.581331        43.0302 
  56   0.0000       1.581331        43.0302 
  57   0.0000       1.589758        43.2595 
  58   0.0000       1.589758        43.2595 
  59   0.0000       1.592628        43.3376 
  60   0.0000       1.635963        44.5168 
  61   0.0000       1.635963        44.5168 
  62   0.0000       1.648510        44.8582 
  63   0.0000       1.648510        44.8582 
  64   0.0000       1.656342        45.0714 
  65   0.0000       1.656342        45.0714 
  66   0.0000       1.658957        45.1425 
  67   0.0000       2.329919        63.4003 
  68   0.0000       3.768841       102.5554 
  69   0.0000       3.768841       102.5554 
  70   0.0000       3.789566       103.1193 
  71   0.0000       4.458638       121.3257 
  72   0.0000       4.458638       121.3257 
  73   0.0000       4.469742       121.6279 
  74   0.0000       4.469742       121.6279 
  75   0.0000       4.476616       121.8149 
  76   0.0000       4.476616       121.8149 
  77   0.0000       4.478912       121.8774 
  78   0.0000       5.330551       145.0517 
  79   0.0000       5.330551       145.0517 
  80   0.0000       5.344819       145.4399 
  81   0.0000       5.344819       145.4399 
  82   0.0000       5.349732       145.5736 
  83   0.0000       5.833885       158.7481 
  84   0.0000       5.833885       158.7481 
  85   0.0000       5.845011       159.0508 
  86   0.0000       5.845011       159.0508 
  87   0.0000       5.853086       159.2706 
  88   0.0000       5.853086       159.2706 
  89   0.0000       5.857969       159.4034 
  90   0.0000       5.857969       159.4034 
  91   0.0000       5.859606       159.4480 
  92   0.0000      42.250541      1149.6957 

                 SPIN DOWN ORBITALS
  NO   OCC          E(Eh)            E(eV) 
   0   1.0000   -1203.544946    -32750.1230 
   1   1.0000    -179.675077     -4889.2074 
   2   1.0000    -162.222632     -4414.3022 
   3   1.0000    -162.222632     -4414.3022 
   4   1.0000    -162.220747     -4414.2509 
   5   1.0000     -35.565150      -967.7769 
   6   1.0000     -29.790859      -810.6505 
   7   1.0000     -29.790859      -810.6505 
   8   1.0000     -29.785730      -810.5109 
   9   1.0000     -20.722775      -563.8954 
  10   1.0000     -20.722775      -563.8954 
  11   1.0000     -20.719322      -563.8014 
  12   1.0000     -20.719322      -563.8014 
  13   1.0000     -20.718163      -563.7699 
  14   1.0000      -6.030690      -164.1034 
  15   1.0000      -4.226811      -115.0174 
  16   1.0000      -4.226811      -115.0174 
  17   1.0000      -4.215499      -114.7096 
  18   1.0000      -1.530456       -41.6458 
  19   1.0000      -1.530456       -41.6458 
  20   1.0000      -1.522018       -41.4162 
  21   1.0000      -1.522018       -41.4162 
  22   1.0000      -1.518801       -41.3287 
  23   1.0000      -0.523983       -14.2583 
  24   1.0000      -0.195612        -5.3229 
  25   0.0000      -0.186801        -5.0831 
  26   0.0000      -0.186801        -5.0831 
  27   0.0000       0.079590         2.1658 
  28   0.0000       0.088332         2.4036 
  29   0.0000       0.088336         2.4037 
  30   0.0000       0.173912         4.7324 
  31   0.0000       0.176907         4.8139 
  32   0.0000       0.176907         4.8139 
  33   0.0000       0.186503         5.0750 
  34   0.0000       0.187748         5.1089 
  35   0.0000       0.187748         5.1089 
  36   0.0000       0.577849        15.7241 
  37   0.0000       0.577849        15.7241 
  38   0.0000       0.577966        15.7273 
  39   0.0000       0.578566        15.7436 
  40   0.0000       0.578566        15.7436 
  41   0.0000       0.586905        15.9705 
  42   0.0000       0.586906        15.9705 
  43   0.0000       0.721857        19.6427 
  44   0.0000       0.724785        19.7224 
  45   0.0000       0.724786        19.7224 
  46   0.0000       1.088899        29.6304 
  47   0.0000       1.088899        29.6304 
  48   0.0000       1.091643        29.7051 
  49   0.0000       1.093152        29.7462 
  50   0.0000       1.093152        29.7462 
  51   0.0000       1.628153        44.3043 
  52   0.0000       1.628330        44.3091 
  53   0.0000       1.628330        44.3091 
  54   0.0000       1.628453        44.3125 
  55   0.0000       1.628453        44.3125 
  56   0.0000       1.630949        44.3804 
  57   0.0000       1.630949        44.3804 
  58   0.0000       1.638657        44.5901 
  59   0.0000       1.638657        44.5901 
  60   0.0000       1.656420        45.0735 
  61   0.0000       1.656420        45.0735 
  62   0.0000       1.661158        45.2024 
  63   0.0000       1.661158        45.2024 
  64   0.0000       1.665513        45.3209 
  65   0.0000       1.665513        45.3209 
  66   0.0000       1.666798        45.3559 
  67   0.0000       2.351554        63.9890 
  68   0.0000       3.790258       103.1382 
  69   0.0000       3.790258       103.1382 
  70   0.0000       3.795817       103.2894 
  71   0.0000       4.485100       122.0458 
  72   0.0000       4.485100       122.0458 
  73   0.0000       4.486713       122.0897 
  74   0.0000       4.486713       122.0897 
  75   0.0000       4.489154       122.1561 
  76   0.0000       4.489154       122.1561 
  77   0.0000       4.489777       122.1731 
  78   0.0000       5.353460       145.6751 
  79   0.0000       5.353461       145.6751 
  80   0.0000       5.356661       145.7622 
  81   0.0000       5.356661       145.7622 
  82   0.0000       5.359687       145.8445 
  83   0.0000       5.849478       159.1724 
  84   0.0000       5.849478       159.1724 
  85   0.0000       5.855842       159.3456 
  86   0.0000       5.855842       159.3456 
  87   0.0000       5.860991       159.4857 
  88   0.0000       5.860991       159.4857 
  89   0.0000       5.864281       159.5752 
  90   0.0000       5.864281       159.5752 
  91   0.0000       5.865384       159.6052 
  92   0.0000      42.265398      1150.1000 

                    ********************************
                    * MULLIKEN POPULATION ANALYSIS *
                    ********************************

--------------------------------------------
MULLIKEN ATOMIC CHARGES AND SPIN POPULATIONS
--------------------------------------------
   0 Te:   -0.000000    2.000000
Sum of atomic charges         :   -0.0000000
Sum of atomic spin populations:    2.0000000

-----------------------------------------------------
MULLIKEN REDUCED ORBITAL CHARGES AND SPIN POPULATIONS
-----------------------------------------------------
CHARGE
  0 Tes       :     9.999059  s :     9.999059
      pz      :     7.325509  p :    21.997916
      px      :     7.668997
      py      :     7.003410
      dz2     :     3.999993  d :    20.000904
      dxz     :     4.000607
      dyz     :     3.999998
      dx2y2   :     4.000305
      dxy     :     4.000000
      f0      :     0.000204  f :     0.002084
      f+1     :     0.000518
      f-1     :     0.000017
      f+2     :     0.000534
      f-2     :     0.000311
      f+3     :     0.000261
      f-3     :     0.000238
      g0      :     0.000003  g :     0.000038
      g+1     :     0.000007
      g-1     :     0.000001
      g+2     :     0.000006
      g-2     :     0.000004
      g+3     :     0.000006
      g-3     :     0.000005
      g+4     :     0.000004
      g-4     :     0.000003

SPIN
  0 Tes       :    -0.000794  s :    -0.000794
      pz      :     0.673126  p :     1.997974
      px      :     0.329372
      py      :     0.995476
      dz2     :    -0.000005  d :     0.000770
      dxz     :     0.000515
      dyz     :    -0.000001
      dx2y2   :     0.000259
      dxy     :     0.000001
      f0      :     0.000196  f :     0.002026
      f+1     :     0.000511
      f-1     :     0.000017
      f+2     :     0.000505
      f-2     :     0.000310
      f+3     :     0.000252
      f-3     :     0.000237
      g0      :     0.000002  g :     0.000025
      g+1     :     0.000005
      g-1     :     0.000001
      g+2     :     0.000003
      g-2     :     0.000003
      g+3     :     0.000003
      g-3     :     0.000004
      g+4     :     0.000002
      g-4     :     0.000002


                     *******************************
                     * LOEWDIN POPULATION ANALYSIS *
                     *******************************

-------------------------------------------
LOEWDIN ATOMIC CHARGES AND SPIN POPULATIONS
-------------------------------------------
   0 Te:   -0.000000    2.000000

----------------------------------------------------
LOEWDIN REDUCED ORBITAL CHARGES AND SPIN POPULATIONS
----------------------------------------------------
CHARGE
  0 Tes       :     9.999059  s :     9.999059
      pz      :     7.325509  p :    21.997916
      px      :     7.668997
      py      :     7.003410
      dz2     :     3.999993  d :    20.000904
      dxz     :     4.000607
      dyz     :     3.999998
      dx2y2   :     4.000305
      dxy     :     4.000000
      f0      :     0.000204  f :     0.002084
      f+1     :     0.000518
      f-1     :     0.000017
      f+2     :     0.000534
      f-2     :     0.000311
      f+3     :     0.000261
      f-3     :     0.000238
      g0      :     0.000003  g :     0.000038
      g+1     :     0.000007
      g-1     :     0.000001
      g+2     :     0.000006
      g-2     :     0.000004
      g+3     :     0.000006
      g-3     :     0.000005
      g+4     :     0.000004
      g-4     :     0.000003

SPIN
  0 Tes       :    -0.000794  s :    -0.000794
      pz      :     0.673126  p :     1.997974
      px      :     0.329372
      py      :     0.995476
      dz2     :    -0.000005  d :     0.000770
      dxz     :     0.000515
      dyz     :    -0.000001
      dx2y2   :     0.000259
      dxy     :     0.000001
      f0      :     0.000196  f :     0.002026
      f+1     :     0.000511
      f-1     :     0.000017
      f+2     :     0.000505
      f-2     :     0.000310
      f+3     :     0.000252
      f-3     :     0.000237
      g0      :     0.000002  g :     0.000025
      g+1     :     0.000005
      g-1     :     0.000001
      g+2     :     0.000003
      g-2     :     0.000003
      g+3     :     0.000003
      g-3     :     0.000004
      g+4     :     0.000002
      g-4     :     0.000002


                      *****************************
                      * MAYER POPULATION ANALYSIS *
                      *****************************

  NA   - Mulliken gross atomic population
  ZA   - Total nuclear charge
  QA   - Mulliken gross atomic charge
  VA   - Mayer's total valence
  BVA  - Mayer's bonded valence
  FA   - Mayer's free valence

  ATOM       NA         ZA         QA         VA         BVA        FA
  0 Te    52.0000    52.0000    -0.0000     2.0066     0.0000     2.0066

  Mayer bond orders larger than 0.100000


-------
TIMINGS
-------

Total SCF time: 0 days 0 hours 16 min 59 sec 

Total time                  ....    1019.507 sec
Sum of individual times     ....    1018.399 sec  ( 99.9%)

Fock matrix formation       ....    1015.526 sec  ( 99.6%)
  XC integration            ....       2.653 sec  (  0.3% of F)
    Basis function eval.    ....       0.132 sec  (  5.0% of XC)
    Density eval.           ....       0.154 sec  (  5.8% of XC)
    XC-Functional eval.     ....       0.031 sec  (  1.2% of XC)
    XC-Potential eval.      ....       0.070 sec  (  2.6% of XC)
Diagonalization             ....       0.128 sec  (  0.0%)
Density matrix formation    ....       0.006 sec  (  0.0%)
Population analysis         ....       0.065 sec  (  0.0%)
Initial guess               ....       1.473 sec  (  0.1%)
Orbital Transformation      ....       0.000 sec  (  0.0%)
Orbital Orthonormalization  ....       0.000 sec  (  0.0%)
DIIS solution               ....       0.084 sec  (  0.0%)
SOSCF solution              ....       0.055 sec  (  0.0%)
Grid generation             ....       1.063 sec  (  0.1%)

Maximum memory used throughout the entire SCF-calculation: 255.5 MB

-------------------------   --------------------
FINAL SINGLE POINT ENERGY     -6908.347251319809
-------------------------   --------------------


                            ***************************************
                            *     ORCA property calculations      *
                            ***************************************

                                    ---------------------
                                    Active property flags
                                    ---------------------
   (+) Dipole Moment


------------------------------------------------------------------------------
                       ORCA ELECTRIC PROPERTIES CALCULATION
------------------------------------------------------------------------------

Dipole Moment Calculation                       ... on
Quadrupole Moment Calculation                   ... off
Polarizability Calculation                      ... off
GBWName                                         ... Te_ano-rcc-vqzp_pbe.gbw
Electron density                                ... Te_ano-rcc-vqzp_pbe.scfp
The origin for moment calculation is the CENTER OF MASS  = ( 0.000000,  0.000000  0.000000)

-------------
DIPOLE MOMENT
-------------
                                X             Y             Z
Electronic contribution:     -0.00000      -0.00000      -0.00000
Nuclear contribution   :      0.00000       0.00000       0.00000
                        -----------------------------------------
Total Dipole Moment    :     -0.00000      -0.00000      -0.00000
                        -----------------------------------------
Magnitude (a.u.)       :      0.00000
Magnitude (Debye)      :      0.00000



--------------------
Rotational spectrum 
--------------------
 
Rotational constants in cm-1:     0.000000     0.000000     0.000000 
Rotational constants in MHz :     0.000000     0.000000     0.000000 

 Dipole components along the rotational axes: 
x,y,z [a.u.] :    -0.000000    -0.000000    -0.000000 
x,y,z [Debye]:    -0.000000    -0.000000    -0.000000 

 

Timings for individual modules:

Sum of individual times         ...     1068.299 sec (=  17.805 min)
GTO integral calculation        ...       39.072 sec (=   0.651 min)   3.7 %
Relativistic integrals          ...        6.941 sec (=   0.116 min)   0.6 %
SCF iterations                  ...     1022.286 sec (=  17.038 min)  95.7 %
                             ****ORCA TERMINATED NORMALLY****
TOTAL RUN TIME: 0 days 0 hours 17 minutes 54 seconds 397 msec
