
                                 *****************
                                 * O   R   C   A *
                                 *****************

                                            #,                                       
                                            ###                                      
                                            ####                                     
                                            #####                                    
                                            ######                                   
                                           ########,                                 
                                     ,,################,,,,,                         
                               ,,#################################,,                 
                          ,,##########################################,,             
                       ,#########################################, ''#####,          
                    ,#############################################,,   '####,        
                  ,##################################################,,,,####,       
                ,###########''''           ''''###############################       
              ,#####''   ,,,,##########,,,,          '''####'''          '####       
            ,##' ,,,,###########################,,,                        '##       
           ' ,,###''''                  '''############,,,                           
         ,,##''                                '''############,,,,        ,,,,,,###''
      ,#''                                            '''#######################'''  
     '                                                          ''''####''''         
             ,#######,   #######,   ,#######,      ##                                
            ,#'     '#,  ##    ##  ,#'     '#,    #''#        ######   ,####,        
            ##       ##  ##   ,#'  ##            #'  '#       #        #'  '#        
            ##       ##  #######   ##           ,######,      #####,   #    #        
            '#,     ,#'  ##    ##  '#,     ,#' ,#      #,         ##   #,  ,#        
             '#######'   ##     ##  '#######'  #'      '#     #####' # '####'        



                  #######################################################
                  #                        -***-                        #
                  #          Department of theory and spectroscopy      #
                  #    Directorship and core code : Frank Neese         #
                  #        Max Planck Institute fuer Kohlenforschung    #
                  #                Kaiser Wilhelm Platz 1               #
                  #                 D-45470 Muelheim/Ruhr               #
                  #                      Germany                        #
                  #                                                     #
                  #                  All rights reserved                #
                  #                        -***-                        #
                  #######################################################


                         Program Version 5.0.1 -  RELEASE  -


 With contributions from (in alphabetic order):
   Daniel Aravena         : Magnetic Suceptibility
   Michael Atanasov       : Ab Initio Ligand Field Theory (pilot matlab implementation)
   Alexander A. Auer      : GIAO ZORA, VPT2 properties, NMR spectrum
   Ute Becker             : Parallelization
   Giovanni Bistoni       : ED, misc. LED, open-shell LED, HFLD
   Martin Brehm           : Molecular dynamics
   Dmytro Bykov           : SCF Hessian
   Vijay G. Chilkuri      : MRCI spin determinant printing, contributions to CSF-ICE
   Dipayan Datta          : RHF DLPNO-CCSD density
   Achintya Kumar Dutta   : EOM-CC, STEOM-CC
   Dmitry Ganyushin       : Spin-Orbit,Spin-Spin,Magnetic field MRCI
   Miquel Garcia          : C-PCM and meta-GGA Hessian, CC/C-PCM, Gaussian charge scheme
   Yang Guo               : DLPNO-NEVPT2, F12-NEVPT2, CIM, IAO-localization
   Andreas Hansen         : Spin unrestricted coupled pair/coupled cluster methods
   Benjamin Helmich-Paris : MC-RPA, TRAH-SCF, COSX integrals
   Lee Huntington         : MR-EOM, pCC
   Robert Izsak           : Overlap fitted RIJCOSX, COSX-SCS-MP3, EOM
   Marcus Kettner         : VPT2
   Christian Kollmar      : KDIIS, OOCD, Brueckner-CCSD(T), CCSD density, CASPT2, CASPT2-K
   Simone Kossmann        : Meta GGA functionals, TD-DFT gradient, OOMP2, MP2 Hessian
   Martin Krupicka        : Initial AUTO-CI
   Lucas Lang             : DCDCAS
   Marvin Lechner         : AUTO-CI (C++ implementation), FIC-MRCC
   Dagmar Lenk            : GEPOL surface, SMD
   Dimitrios Liakos       : Extrapolation schemes; Compound Job, initial MDCI parallelization
   Dimitrios Manganas     : Further ROCIS development; embedding schemes
   Dimitrios Pantazis     : SARC Basis sets
   Anastasios Papadopoulos: AUTO-CI, single reference methods and gradients
   Taras Petrenko         : DFT Hessian,TD-DFT gradient, ASA, ECA, R-Raman, ABS, FL, XAS/XES, NRVS
   Peter Pinski           : DLPNO-MP2, DLPNO-MP2 Gradient
   Christoph Reimann      : Effective Core Potentials
   Marius Retegan         : Local ZFS, SOC
   Christoph Riplinger    : Optimizer, TS searches, QM/MM, DLPNO-CCSD(T), (RO)-DLPNO pert. Triples
   Tobias Risthaus        : Range-separated hybrids, TD-DFT gradient, RPA, STAB
   Michael Roemelt        : Original ROCIS implementation
   Masaaki Saitow         : Open-shell DLPNO-CCSD energy and density
   Barbara Sandhoefer     : DKH picture change effects
   Avijit Sen             : IP-ROCIS
   Kantharuban Sivalingam : CASSCF convergence, NEVPT2, FIC-MRCI
   Bernardo de Souza      : ESD, SOC TD-DFT
   Georgi Stoychev        : AutoAux, RI-MP2 NMR, DLPNO-MP2 response
   Willem Van den Heuvel  : Paramagnetic NMR
   Boris Wezisla          : Elementary symmetry handling
   Frank Wennmohs         : Technical directorship


 We gratefully acknowledge several colleagues who have allowed us to
 interface, adapt or use parts of their codes:
   Stefan Grimme, W. Hujo, H. Kruse, P. Pracht,  : VdW corrections, initial TS optimization,
                  C. Bannwarth, S. Ehlert          DFT functionals, gCP, sTDA/sTD-DF
   Ed Valeev, F. Pavosevic, A. Kumar             : LibInt (2-el integral package), F12 methods
   Garnet Chan, S. Sharma, J. Yang, R. Olivares  : DMRG
   Ulf Ekstrom                                   : XCFun DFT Library
   Mihaly Kallay                                 : mrcc  (arbitrary order and MRCC methods)
   Jiri Pittner, Ondrej Demel                    : Mk-CCSD
   Frank Weinhold                                : gennbo (NPA and NBO analysis)
   Christopher J. Cramer and Donald G. Truhlar   : smd solvation model
   Lars Goerigk                                  : TD-DFT with DH, B97 family of functionals
   V. Asgeirsson, H. Jonsson                     : NEB implementation
   FAccTs GmbH                                   : IRC, NEB, NEB-TS, DLPNO-Multilevel, CI-OPT
                                                   MM, QMMM, 2- and 3-layer-ONIOM, Crystal-QMMM,
                                                   LR-CPCM, SF, NACMEs, symmetry and pop. for TD-DFT,
                                                   nearIR, NL-DFT gradient (VV10), updates on ESD,
                                                   ML-optimized integration grids
   S Lehtola, MJT Oliveira, MAL Marques          : LibXC Library
   Liviu Ungur et al                             : ANISO software


 Your calculation uses the libint2 library for the computation of 2-el integrals
 For citations please refer to: http://libint.valeyev.net

 Your ORCA version has been built with support for libXC version: 5.1.0
 For citations please refer to: https://tddft.org/programs/libxc/

 This ORCA versions uses:
   CBLAS   interface :  Fast vector & matrix operations
   LAPACKE interface :  Fast linear algebra routines
   SCALAPACK package :  Parallel linear algebra routines
   Shared memory     :  Shared parallel matrices
   BLAS/LAPACK       :  OpenBLAS 0.3.15  USE64BITINT DYNAMIC_ARCH NO_AFFINITY Haswell SINGLE_THREADED
        Core in use  :  Haswell
   Copyright (c) 2011-2014, The OpenBLAS Project


SCAN-COORDS

Reading of a custom basis requested
Basis file         : Xe_sapporo-qzp-2012-diffuse.basis
READING GTO-BASIS: XENON
Basis successfully read

================================================================================

----- Orbital basis set information -----
================================================================================
                                        WARNINGS
                       Please study these warnings very carefully!
================================================================================


INFO   : the flag for use of the SHARK integral package has been found!

================================================================================
                                       INPUT FILE
================================================================================
NAME = Xe_sapporo-qzp-2012-diffuse_pbe.inp
|  1> !uks pbe nori verytightscf soscf notrah defgrid3
|  2> 
|  3> %pal
|  4>   nprocs 32
|  5> end
|  6> %coords
|  7>   charge 0
|  8>   mult 1
|  9>   units bohrs
| 10>   coords
| 11>     Xe 0.0 0.0 0.0
| 12>   end
| 13> end
| 14> %basis
| 15>   gtoname "Xe_sapporo-qzp-2012-diffuse.basis"
| 16>   delECP Xe
| 17> end
| 18> %rel
| 19>   method zora
| 20>   modelpot 1, 0, 0, 0
| 21>   c 137.035999084
| 22> endd                         ****END OF INPUT****
================================================================================

                       ****************************
                       * Single Point Calculation *
                       ****************************

---------------------------------
CARTESIAN COORDINATES (ANGSTROEM)
---------------------------------
  Xe     0.000000    0.000000    0.000000

----------------------------
CARTESIAN COORDINATES (A.U.)
----------------------------
  NO LB      ZA    FRAG     MASS         X           Y           Z
   0 Xe   54.0000    0   131.300    0.000000    0.000000    0.000000

--------------------------------
INTERNAL COORDINATES (ANGSTROEM)
--------------------------------
 Xe     0   0   0     0.000000000000     0.00000000     0.00000000

---------------------------
INTERNAL COORDINATES (A.U.)
---------------------------
 Xe     0   0   0     0.000000000000     0.00000000     0.00000000

---------------------
BASIS SET INFORMATION
---------------------
There are 1 groups of distinct atoms

 Group   1 Type Xe  : 24s18p14d6f5g2h contracted to 11s10p8d6f4g2h pattern {74322111111/7221111111/71111111/111111/2111/11}

Atom   0Xe   basis set group =>   1


           ************************************************************
           *        Program running with 32 parallel MPI-processes    *
           *              working on a common directory               *
           ************************************************************
------------------------------------------------------------------------------
                           ORCA GTO INTEGRAL CALCULATION
------------------------------------------------------------------------------
------------------------------------------------------------------------------
                   ___                                                        
                  /   \      - P O W E R E D   B Y -                         
                 /     \                                                     
                 |  |  |   _    _      __       _____    __    __             
                 |  |  |  | |  | |    /  \     |  _  \  |  |  /  |          
                  \  \/   | |  | |   /    \    | | | |  |  | /  /          
                 / \  \   | |__| |  /  /\  \   | |_| |  |  |/  /          
                |  |  |   |  __  | /  /__\  \  |    /   |      \           
                |  |  |   | |  | | |   __   |  |    \   |  |\   \          
                \     /   | |  | | |  |  |  |  | |\  \  |  | \   \       
                 \___/    |_|  |_| |__|  |__|  |_| \__\ |__|  \__/        
                                                                              
                      - O R C A' S   B I G   F R I E N D -                    
                                      &                                       
                       - I N T E G R A L  F E E D E R -                       
                                                                              
 v1 FN, 2020, v2 2021                                                         
------------------------------------------------------------------------------


Reading SHARK input file Xe_sapporo-qzp-2012-diffuse_pbe.SHARKINP.tmp ... ok
----------------------
SHARK INTEGRAL PACKAGE
----------------------

Number of atoms                             ...      1
Number of basis functions                   ...    181
Number of shells                            ...     41
Maximum angular momentum                    ...      5
Integral batch strategy                     ... SHARK/LIBINT Hybrid
RI-J (if used) integral strategy            ... SPLIT-RIJ (Revised 2003 algorithm where possible)
Printlevel                                  ...      1
Contraction scheme used                     ... SEGMENTED contraction
Coulomb Range Separation                    ... NOT USED
Exchange Range Separation                   ... NOT USED
Finite Nucleus Model                        ... NOT USED
Auxiliary Coulomb fitting basis             ... NOT available
Auxiliary J/K fitting basis                 ... NOT available
Auxiliary Correlation fitting basis         ... NOT available
Auxiliary 'external' fitting basis          ... NOT available
Integral threshold                          ...     1.000000e-12
Primitive cut-off                           ...     1.000000e-14
Primitive pair pre-selection threshold      ...     1.000000e-14

Calculating pre-screening integrals         ... done (  0.9 sec) Dimension = 41
Organizing shell pair data                  ... done (  0.1 sec)
Shell pair information
Total number of shell pairs                 ...       861
Shell pairs after pre-screening             ...       861
Total number of primitive shell pairs       ...      2492
Primitive shell pairs kept                  ...      2492
          la=0 lb=0:     66 shell pairs
          la=1 lb=0:    110 shell pairs
          la=1 lb=1:     55 shell pairs
          la=2 lb=0:     88 shell pairs
          la=2 lb=1:     80 shell pairs
          la=2 lb=2:     36 shell pairs
          la=3 lb=0:     66 shell pairs
          la=3 lb=1:     60 shell pairs
          la=3 lb=2:     48 shell pairs
          la=3 lb=3:     21 shell pairs
          la=4 lb=0:     44 shell pairs
          la=4 lb=1:     40 shell pairs
          la=4 lb=2:     32 shell pairs
          la=4 lb=3:     24 shell pairs
          la=4 lb=4:     10 shell pairs
          la=5 lb=0:     22 shell pairs
          la=5 lb=1:     20 shell pairs
          la=5 lb=2:     16 shell pairs
          la=5 lb=3:     12 shell pairs
          la=5 lb=4:      8 shell pairs
          la=5 lb=5:      3 shell pairs

Calculating one electron integrals          ... done (  0.1 sec)
Calculating Nuclear repulsion               ... done (  0.0 sec) ENN=      0.000000000000 Eh

SHARK setup successfully completed in   1.4 seconds

Maximum memory used throughout the entire GTOINT-calculation: 39.4 MB


           ************************************************************
           *        Program running with 32 parallel MPI-processes    *
           *              working on a common directory               *
           ************************************************************
------------------------------------------------------------------------------
                          ORCA RELATIVISTIC HAMILTONIAN
------------------------------------------------------------------------------

Relativistic Method            ... ZORA(MP)
Treatment of potential         ... Van Wuellen
Nucleus model                  ... Point Nucleus
Speed of light used            ... 137.03599908400000


            *************************************************
            *         ZERO ORDER REGULAR APPROXIMATION      *
            *                     ZORA(MP)                  *
            *            Programmed by FN according to      *
            *                   C. van Wuellen              *
            *       J. Chem. Phys. (1998) vol 109, 392-399  *
            *************************************************

Terms included in model potential: +V(e,N)
Basis function cutoff value   ... 1.000000e-12
Loading the fitted atomic densities  (DKH4)  ... done
Calculating the cutoffs                      ... done
Number of fit functions                      ... 32
Setting up the integration grid ... done

Maximum memory used throughout the entire REL-calculation: 23.8 MB


           ************************************************************
           *        Program running with 32 parallel MPI-processes    *
           *              working on a common directory               *
           ************************************************************
-------------------------------------------------------------------------------
                                 ORCA SCF
-------------------------------------------------------------------------------

------------
SCF SETTINGS
------------
Hamiltonian:
 Density Functional     Method          .... DFT(GTOs)
 Exchange Functional    Exchange        .... PBE
   PBE kappa parameter   XKappa         ....  0.804000
   PBE mue parameter    XMuePBE         ....  0.219520
 Correlation Functional Correlation     .... PBE
   PBE beta parameter  CBetaPBE         ....  0.066725
 LDA part of GGA corr.  LDAOpt          .... PW91-LDA
 Gradients option       PostSCFGGA      .... off
   Density functional embedding theory  .... OFF
   NL short-range parameter             ....  6.400000

Relativistic Settings:
 Scalar relativistic method             .... ZORA
 Speed of light used       Velit        ....       137.035999
Orbital energies will be scaled


General Settings:
 Integral files         IntName         .... Xe_sapporo-qzp-2012-diffuse_pbe
 Hartree-Fock type      HFTyp           .... UHF
 Total Charge           Charge          ....    0
 Multiplicity           Mult            ....    1
 Number of Electrons    NEL             ....   54
 Basis Dimension        Dim             ....  181
 Nuclear Repulsion      ENuc            ....      0.0000000000 Eh

Convergence Acceleration:
 DIIS                   CNVDIIS         .... on
   Start iteration      DIISMaxIt       ....    12
   Startup error        DIISStart       ....  0.200000
   # of expansion vecs  DIISMaxEq       ....     5
   Bias factor          DIISBfac        ....   1.050
   Max. coefficient     DIISMaxC        ....  10.000
 Trust-Rad. Augm. Hess. CNVTRAH         .... off
 SOSCF                  CNVSOSCF        .... on
   Start iteration      SOSCFMaxIt      ....   150
   Startup grad/error   SOSCFStart      ....  0.003300
 Level Shifting         CNVShift        .... on
   Level shift para.    LevelShift      ....    0.2500
   Turn off err/grad.   ShiftErr        ....    0.0010
 Zerner damping         CNVZerner       .... off
 Static damping         CNVDamp         .... on
   Fraction old density DampFac         ....    0.7000
   Max. Damping (<1)    DampMax         ....    0.9800
   Min. Damping (>=0)   DampMin         ....    0.0000
   Turn off err/grad.   DampErr         ....    0.1000
 Fernandez-Rico         CNVRico         .... off

SCF Procedure:
 Maximum # iterations   MaxIter         ....   125
 SCF integral mode      SCFMode         .... Direct
   Integral package                     .... SHARK and LIBINT hybrid scheme
 Reset frequency        DirectResetFreq ....    20
 Integral Threshold     Thresh          ....  1.000e-12 Eh
 Primitive CutOff       TCut            ....  1.000e-14 Eh

Convergence Tolerance:
 Convergence Check Mode ConvCheckMode   .... Total+1el-Energy
 Convergence forced     ConvForced      .... 0
 Energy Change          TolE            ....  1.000e-09 Eh
 1-El. energy change                    ....  1.000e-06 Eh
 Orbital Gradient       TolG            ....  2.000e-06
 Orbital Rotation angle TolX            ....  2.000e-06
 DIIS Error             TolErr          ....  1.000e-08


Diagonalization of the overlap matrix:
Smallest eigenvalue                        ... 1.551e-04
Time for diagonalization                   ...    0.012 sec
Threshold for overlap eigenvalues          ... 1.000e-08
Number of eigenvalues below threshold      ... 0
Time for construction of square roots      ...    0.046 sec
Total time needed                          ...    0.059 sec

Time for model grid setup =    0.186 sec

------------------------------
INITIAL GUESS: MODEL POTENTIAL
------------------------------
Loading ZORA relativistic densities                ... done
Calculating cut-offs                               ... done
Initializing the effective Hamiltonian             ... done
Setting up the integral package (SHARK)            ... done
Starting the Coulomb interaction                   ... done (   0.3 sec)
Reading the grid                                   ... done
Mapping shells                                     ... done
Starting the XC term evaluation                    ... done (   0.0 sec)
  promolecular density results
     # of electrons  =     54.003162780
     EX              =   -195.356567898
     EC              =     -2.901221558
     EX+EC           =   -198.257789456
Transforming the Hamiltonian                       ... done (   0.0 sec)
Diagonalizing the Hamiltonian                      ... done (   0.0 sec)
Back transforming the eigenvectors                 ... done (   0.0 sec)
Now organizing SCF variables                       ... done
                      ------------------
                      INITIAL GUESS DONE (   0.6 sec)
                      ------------------
-------------------
DFT GRID GENERATION
-------------------

General Integration Accuracy     IntAcc      ... 4.959
Radial Grid Type                 RadialGrid  ... OptM3 with GC (2021)
Angular Grid (max. ang.)         AngularGrid ... 6 (Lebedev-590)
Angular grid pruning method      GridPruning ... 4 (adaptive)
Weight generation scheme         WeightScheme... Becke
Basis function cutoff            BFCut       ... 1.0000e-12
Integration weight cutoff        WCut        ... 1.0000e-14
Angular grids for H and He will be reduced by one unit
Partially contracted basis set               ... off
Rotationally invariant grid construction     ... off

Total number of grid points                  ...    65888
Total number of batches                      ...     1030
Average number of points per batch           ...       63
Average number of grid points per atom       ...    65888
Time for grid setup =    4.427 sec

--------------
SCF ITERATIONS
--------------
ITER       Energy         Delta-E        Max-DP      RMS-DP      [F,P]     Damp
               ***  Starting incremental Fock matrix formation  ***
  0  -7549.4400438740   0.000000000000 0.12687457  0.00189938  0.6778227 0.7000
  1  -7549.5036220972  -0.063578223135 0.07560326  0.00118995  0.4548888 0.7000
  2  -7549.5380930150  -0.034470917833 0.04481190  0.00074091  0.3069238 0.7000
  3  -7549.5600913010  -0.021998286021 0.02854608  0.00047333  0.2082291 0.7000
                               ***Turning on DIIS***
  4  -7549.5750339316  -0.014942630580 0.01956712  0.00030910  0.1418255 0.7000
  5  -7549.5853605042  -0.010326572641 0.04331772  0.00063325  0.0968577 0.0000
                      *** Initiating the SOSCF procedure ***
                           *** Shutting down DIIS ***
                      *** Re-Reading the Fockian *** 
                      *** Removing any level shift *** 
ITER      Energy       Delta-E        Grad      Rot      Max-DP    RMS-DP
  6  -7549.60917275  -0.0238122439  0.001512  0.001512  0.001456  0.000022
               *** Restarting incremental Fock matrix formation ***
  7  -7549.60917637  -0.0000036236  0.000807  0.000403  0.000997  0.000019
  8  -7549.60917618   0.0000001962  0.000731  0.000276  0.000485  0.000010
  9  -7549.60918047  -0.0000042902  0.000026  0.000029  0.000069  0.000001
 10  -7549.60918047  -0.0000000052  0.000016  0.000010  0.000021  0.000000
 11  -7549.60918047  -0.0000000020  0.000001  0.000000  0.000000  0.000000
                  ***Gradient check signals convergence***
              ***Rediagonalizing the Fockian in SOSCF/NRSCF***

               *****************************************************
               *                     SUCCESS                       *
               *           SCF CONVERGED AFTER  12 CYCLES          *
               *****************************************************


----------------
TOTAL SCF ENERGY
----------------

Total Energy       :        -7549.60918047 Eh         -205435.30993 eV

Components:
Nuclear Repulsion  :            0.00000000 Eh               0.00000 eV
Electronic Energy  :        -7549.60918047 Eh         -205435.30993 eV
One Electron Energy:       -10292.98843118 Eh         -280086.45453 eV
Two Electron Energy:         2743.37925070 Eh           74651.14460 eV

Virial components:
Potential Energy   :       -14653.73991242 Eh         -398748.53500 eV
Kinetic Energy     :         7104.13073195 Eh          193313.22507 eV
Virial Ratio       :            2.06270696


DFT components:
N(Alpha)           :       27.000000000048 electrons
N(Beta)            :       27.000000000048 electrons
N(Total)           :       54.000000000096 electrons
E(X)               :     -181.011882699372 Eh       
E(C)               :       -2.923346877015 Eh       
E(XC)              :     -183.935229576387 Eh       
DFET-embed. en.    :        0.000000000000 Eh       

---------------
SCF CONVERGENCE
---------------

  Last Energy change         ...   -7.2760e-12  Tolerance :   1.0000e-09
  Last MAX-Density change    ...    3.1817e-07  Tolerance :   1.0000e-08
  Last RMS-Density change    ...    4.3377e-09  Tolerance :   1.0000e-09
  Last Orbital Gradient      ...    1.3342e-07  Tolerance :   2.0000e-06
  Last Orbital Rotation      ...    8.2781e-09  Tolerance :   2.0000e-06

             **** THE GBW FILE WAS UPDATED (Xe_sapporo-qzp-2012-diffuse_pbe.gbw) ****
             **** DENSITY Xe_sapporo-qzp-2012-diffuse_pbe.scfp WAS UPDATED ****
             **** ENERGY FILE WAS UPDATED (Xe_sapporo-qzp-2012-diffuse_pbe.en.tmp) ****
----------------------
UHF SPIN CONTAMINATION
----------------------

Warning: in a DFT calculation there is little theoretical justification to 
         calculate <S**2> as in Hartree-Fock theory. We will do it anyways
         but you should keep in mind that the values have only limited relevance

Expectation value of <S**2>     :    -0.000000
Ideal value S*(S+1) for S=0.0   :     0.000000
Deviation                       :    -0.000000

             **** THE GBW FILE WAS UPDATED (Xe_sapporo-qzp-2012-diffuse_pbe.gbw) ****
             **** DENSITY Xe_sapporo-qzp-2012-diffuse_pbe.scfp WAS UPDATED ****
----------------
ORBITAL ENERGIES
----------------
                 SPIN UP ORBITALS
  NO   OCC          E(Eh)            E(eV) 
   0   1.0000   -1306.456020    -35550.4756 
   1   1.0000    -196.647474     -5351.0498 
   2   1.0000    -179.352102     -4880.4188 
   3   1.0000    -179.352102     -4880.4188 
   4   1.0000    -179.352102     -4880.4188 
   5   1.0000     -39.866810     -1084.8311 
   6   1.0000     -33.949333      -923.8083 
   7   1.0000     -33.949333      -923.8083 
   8   1.0000     -33.949333      -923.8083 
   9   1.0000     -24.198527      -658.4754 
  10   1.0000     -24.198527      -658.4754 
  11   1.0000     -24.198527      -658.4754 
  12   1.0000     -24.198527      -658.4754 
  13   1.0000     -24.198527      -658.4754 
  14   1.0000      -7.175344      -195.2510 
  15   1.0000      -5.224565      -142.1676 
  16   1.0000      -5.224565      -142.1676 
  17   1.0000      -5.224565      -142.1676 
  18   1.0000      -2.199462       -59.8504 
  19   1.0000      -2.199462       -59.8504 
  20   1.0000      -2.199462       -59.8504 
  21   1.0000      -2.199462       -59.8504 
  22   1.0000      -2.199462       -59.8504 
  23   1.0000      -0.712810       -19.3966 
  24   1.0000      -0.304280        -8.2799 
  25   1.0000      -0.304280        -8.2799 
  26   1.0000      -0.304280        -8.2799 
  27   0.0000      -0.014372        -0.3911 
  28   0.0000       0.029008         0.7893 
  29   0.0000       0.029008         0.7893 
  30   0.0000       0.029008         0.7893 
  31   0.0000       0.067731         1.8431 
  32   0.0000       0.067731         1.8431 
  33   0.0000       0.067731         1.8431 
  34   0.0000       0.067731         1.8431 
  35   0.0000       0.067731         1.8431 
  36   0.0000       0.171141         4.6570 
  37   0.0000       0.236108         6.4248 
  38   0.0000       0.236108         6.4248 
  39   0.0000       0.236108         6.4248 
  40   0.0000       0.275467         7.4958 
  41   0.0000       0.275467         7.4958 
  42   0.0000       0.275467         7.4958 
  43   0.0000       0.275467         7.4958 
  44   0.0000       0.275467         7.4958 
  45   0.0000       0.275467         7.4958 
  46   0.0000       0.275467         7.4958 
  47   0.0000       0.276962         7.5365 
  48   0.0000       0.276962         7.5365 
  49   0.0000       0.276962         7.5365 
  50   0.0000       0.276962         7.5365 
  51   0.0000       0.276962         7.5365 
  52   0.0000       0.435635        11.8542 
  53   0.0000       0.435635        11.8542 
  54   0.0000       0.435635        11.8542 
  55   0.0000       0.435635        11.8542 
  56   0.0000       0.435635        11.8542 
  57   0.0000       0.435635        11.8542 
  58   0.0000       0.435635        11.8542 
  59   0.0000       0.435635        11.8542 
  60   0.0000       0.435635        11.8542 
  61   0.0000       0.645084        17.5536 
  62   0.0000       0.645084        17.5536 
  63   0.0000       0.645084        17.5536 
  64   0.0000       0.645084        17.5536 
  65   0.0000       0.645084        17.5536 
  66   0.0000       0.645084        17.5536 
  67   0.0000       0.645084        17.5536 
  68   0.0000       0.758772        20.6472 
  69   0.0000       0.992171        26.9983 
  70   0.0000       0.992171        26.9983 
  71   0.0000       0.992171        26.9983 
  72   0.0000       0.992171        26.9983 
  73   0.0000       0.992171        26.9983 
  74   0.0000       1.029848        28.0236 
  75   0.0000       1.029848        28.0236 
  76   0.0000       1.029848        28.0236 
  77   0.0000       1.345582        36.6151 
  78   0.0000       1.345582        36.6151 
  79   0.0000       1.345582        36.6151 
  80   0.0000       1.345582        36.6151 
  81   0.0000       1.345582        36.6151 
  82   0.0000       1.345582        36.6151 
  83   0.0000       1.345582        36.6151 
  84   0.0000       1.761511        47.9332 
  85   0.0000       1.761511        47.9332 
  86   0.0000       1.761511        47.9332 
  87   0.0000       1.761511        47.9332 
  88   0.0000       1.761511        47.9332 
  89   0.0000       1.761511        47.9332 
  90   0.0000       1.761511        47.9332 
  91   0.0000       1.761511        47.9332 
  92   0.0000       1.761511        47.9332 
  93   0.0000       2.256732        61.4088 
  94   0.0000       2.857302        77.7511 
  95   0.0000       2.857302        77.7511 
  96   0.0000       2.857302        77.7511 
  97   0.0000       2.857302        77.7511 
  98   0.0000       2.857302        77.7511 
  99   0.0000       3.476001        94.5868 
 100   0.0000       3.476001        94.5868 
 101   0.0000       3.476001        94.5868 
 102   0.0000       3.476001        94.5868 
 103   0.0000       3.476001        94.5868 
 104   0.0000       3.476001        94.5868 
 105   0.0000       3.476001        94.5868 
 106   0.0000       3.487720        94.9057 
 107   0.0000       3.487720        94.9057 
 108   0.0000       3.487720        94.9057 
 109   0.0000       5.991223       163.0295 
 110   0.0000       5.991223       163.0295 
 111   0.0000       5.991223       163.0295 
 112   0.0000       5.991223       163.0295 
 113   0.0000       5.991223       163.0295 
 114   0.0000       5.991223       163.0295 
 115   0.0000       5.991223       163.0295 
 116   0.0000       5.991223       163.0295 
 117   0.0000       5.991223       163.0295 
 118   0.0000       5.991223       163.0295 
 119   0.0000       5.991223       163.0295 
 120   0.0000       6.716912       182.7765 
 121   0.0000       6.987998       190.1531 
 122   0.0000       6.987998       190.1531 
 123   0.0000       6.987998       190.1531 
 124   0.0000       6.987998       190.1531 
 125   0.0000       6.987998       190.1531 
 126   0.0000       6.987998       190.1531 
 127   0.0000       6.987998       190.1531 
 128   0.0000       6.987998       190.1531 
 129   0.0000       6.987998       190.1531 
 130   0.0000       8.403559       228.6725 
 131   0.0000       8.403559       228.6725 
 132   0.0000       8.403559       228.6725 
 133   0.0000       8.403559       228.6725 
 134   0.0000       8.403559       228.6725 
 135   0.0000       9.944811       270.6121 
 136   0.0000       9.944811       270.6121 
 137   0.0000       9.944811       270.6121 
 138   0.0000       9.944811       270.6121 
 139   0.0000       9.944811       270.6121 
 140   0.0000       9.944811       270.6121 
 141   0.0000       9.944811       270.6121 
 142   0.0000      15.106334       411.0642 
 143   0.0000      15.106334       411.0642 
 144   0.0000      15.106334       411.0642 
 145   0.0000      17.800407       484.3737 
 146   0.0000      17.800407       484.3737 
 147   0.0000      17.800407       484.3737 
 148   0.0000      17.800407       484.3737 
 149   0.0000      17.800407       484.3737 
 150   0.0000      17.800407       484.3737 
 151   0.0000      17.800407       484.3737 
 152   0.0000      17.800407       484.3737 
 153   0.0000      17.800407       484.3737 
 154   0.0000      17.886938       486.7283 
 155   0.0000      17.886938       486.7283 
 156   0.0000      17.886938       486.7283 
 157   0.0000      17.886938       486.7283 
 158   0.0000      17.886938       486.7283 
 159   0.0000      17.886938       486.7283 
 160   0.0000      17.886938       486.7283 
 161   0.0000      17.886938       486.7283 
 162   0.0000      17.886938       486.7283 
 163   0.0000      17.886938       486.7283 
 164   0.0000      17.886938       486.7283 
 165   0.0000      22.634777       615.9236 
 166   0.0000      22.634777       615.9236 
 167   0.0000      22.634777       615.9236 
 168   0.0000      22.634777       615.9236 
 169   0.0000      22.634777       615.9236 
 170   0.0000      22.634777       615.9236 
 171   0.0000      22.634777       615.9236 
 172   0.0000      28.045914       763.1681 
 173   0.0000      28.045914       763.1681 
 174   0.0000      28.045914       763.1681 
 175   0.0000      28.045914       763.1681 
 176   0.0000      28.045914       763.1681 
 177   0.0000      31.038692       844.6057 
 178   0.0000      63.301035      1722.5087 
 179   0.0000      63.301035      1722.5087 
 180   0.0000      63.301035      1722.5087 

                 SPIN DOWN ORBITALS
  NO   OCC          E(Eh)            E(eV) 
   0   1.0000   -1306.456020    -35550.4756 
   1   1.0000    -196.647474     -5351.0498 
   2   1.0000    -179.352102     -4880.4188 
   3   1.0000    -179.352102     -4880.4188 
   4   1.0000    -179.352102     -4880.4188 
   5   1.0000     -39.866810     -1084.8311 
   6   1.0000     -33.949333      -923.8083 
   7   1.0000     -33.949333      -923.8083 
   8   1.0000     -33.949333      -923.8083 
   9   1.0000     -24.198527      -658.4754 
  10   1.0000     -24.198527      -658.4754 
  11   1.0000     -24.198527      -658.4754 
  12   1.0000     -24.198527      -658.4754 
  13   1.0000     -24.198527      -658.4754 
  14   1.0000      -7.175344      -195.2510 
  15   1.0000      -5.224565      -142.1676 
  16   1.0000      -5.224565      -142.1676 
  17   1.0000      -5.224565      -142.1676 
  18   1.0000      -2.199462       -59.8504 
  19   1.0000      -2.199462       -59.8504 
  20   1.0000      -2.199462       -59.8504 
  21   1.0000      -2.199462       -59.8504 
  22   1.0000      -2.199462       -59.8504 
  23   1.0000      -0.712810       -19.3966 
  24   1.0000      -0.304280        -8.2799 
  25   1.0000      -0.304280        -8.2799 
  26   1.0000      -0.304280        -8.2799 
  27   0.0000      -0.014372        -0.3911 
  28   0.0000       0.029008         0.7893 
  29   0.0000       0.029008         0.7893 
  30   0.0000       0.029008         0.7893 
  31   0.0000       0.067731         1.8431 
  32   0.0000       0.067731         1.8431 
  33   0.0000       0.067731         1.8431 
  34   0.0000       0.067731         1.8431 
  35   0.0000       0.067731         1.8431 
  36   0.0000       0.171141         4.6570 
  37   0.0000       0.236108         6.4248 
  38   0.0000       0.236108         6.4248 
  39   0.0000       0.236108         6.4248 
  40   0.0000       0.275467         7.4958 
  41   0.0000       0.275467         7.4958 
  42   0.0000       0.275467         7.4958 
  43   0.0000       0.275467         7.4958 
  44   0.0000       0.275467         7.4958 
  45   0.0000       0.275467         7.4958 
  46   0.0000       0.275467         7.4958 
  47   0.0000       0.276962         7.5365 
  48   0.0000       0.276962         7.5365 
  49   0.0000       0.276962         7.5365 
  50   0.0000       0.276962         7.5365 
  51   0.0000       0.276962         7.5365 
  52   0.0000       0.435635        11.8542 
  53   0.0000       0.435635        11.8542 
  54   0.0000       0.435635        11.8542 
  55   0.0000       0.435635        11.8542 
  56   0.0000       0.435635        11.8542 
  57   0.0000       0.435635        11.8542 
  58   0.0000       0.435635        11.8542 
  59   0.0000       0.435635        11.8542 
  60   0.0000       0.435635        11.8542 
  61   0.0000       0.645084        17.5536 
  62   0.0000       0.645084        17.5536 
  63   0.0000       0.645084        17.5536 
  64   0.0000       0.645084        17.5536 
  65   0.0000       0.645084        17.5536 
  66   0.0000       0.645084        17.5536 
  67   0.0000       0.645084        17.5536 
  68   0.0000       0.758772        20.6472 
  69   0.0000       0.992171        26.9983 
  70   0.0000       0.992171        26.9983 
  71   0.0000       0.992171        26.9983 
  72   0.0000       0.992171        26.9983 
  73   0.0000       0.992171        26.9983 
  74   0.0000       1.029848        28.0236 
  75   0.0000       1.029848        28.0236 
  76   0.0000       1.029848        28.0236 
  77   0.0000       1.345582        36.6151 
  78   0.0000       1.345582        36.6151 
  79   0.0000       1.345582        36.6151 
  80   0.0000       1.345582        36.6151 
  81   0.0000       1.345582        36.6151 
  82   0.0000       1.345582        36.6151 
  83   0.0000       1.345582        36.6151 
  84   0.0000       1.761511        47.9332 
  85   0.0000       1.761511        47.9332 
  86   0.0000       1.761511        47.9332 
  87   0.0000       1.761511        47.9332 
  88   0.0000       1.761511        47.9332 
  89   0.0000       1.761511        47.9332 
  90   0.0000       1.761511        47.9332 
  91   0.0000       1.761511        47.9332 
  92   0.0000       1.761511        47.9332 
  93   0.0000       2.256732        61.4088 
  94   0.0000       2.857302        77.7511 
  95   0.0000       2.857302        77.7511 
  96   0.0000       2.857302        77.7511 
  97   0.0000       2.857302        77.7511 
  98   0.0000       2.857302        77.7511 
  99   0.0000       3.476001        94.5868 
 100   0.0000       3.476001        94.5868 
 101   0.0000       3.476001        94.5868 
 102   0.0000       3.476001        94.5868 
 103   0.0000       3.476001        94.5868 
 104   0.0000       3.476001        94.5868 
 105   0.0000       3.476001        94.5868 
 106   0.0000       3.487720        94.9057 
 107   0.0000       3.487720        94.9057 
 108   0.0000       3.487720        94.9057 
 109   0.0000       5.991223       163.0295 
 110   0.0000       5.991223       163.0295 
 111   0.0000       5.991223       163.0295 
 112   0.0000       5.991223       163.0295 
 113   0.0000       5.991223       163.0295 
 114   0.0000       5.991223       163.0295 
 115   0.0000       5.991223       163.0295 
 116   0.0000       5.991223       163.0295 
 117   0.0000       5.991223       163.0295 
 118   0.0000       5.991223       163.0295 
 119   0.0000       5.991223       163.0295 
 120   0.0000       6.716912       182.7765 
 121   0.0000       6.987998       190.1531 
 122   0.0000       6.987998       190.1531 
 123   0.0000       6.987998       190.1531 
 124   0.0000       6.987998       190.1531 
 125   0.0000       6.987998       190.1531 
 126   0.0000       6.987998       190.1531 
 127   0.0000       6.987998       190.1531 
 128   0.0000       6.987998       190.1531 
 129   0.0000       6.987998       190.1531 
 130   0.0000       8.403559       228.6725 
 131   0.0000       8.403559       228.6725 
 132   0.0000       8.403559       228.6725 
 133   0.0000       8.403559       228.6725 
 134   0.0000       8.403559       228.6725 
 135   0.0000       9.944811       270.6121 
 136   0.0000       9.944811       270.6121 
 137   0.0000       9.944811       270.6121 
 138   0.0000       9.944811       270.6121 
 139   0.0000       9.944811       270.6121 
 140   0.0000       9.944811       270.6121 
 141   0.0000       9.944811       270.6121 
 142   0.0000      15.106334       411.0642 
 143   0.0000      15.106334       411.0642 
 144   0.0000      15.106334       411.0642 
 145   0.0000      17.800407       484.3737 
 146   0.0000      17.800407       484.3737 
 147   0.0000      17.800407       484.3737 
 148   0.0000      17.800407       484.3737 
 149   0.0000      17.800407       484.3737 
 150   0.0000      17.800407       484.3737 
 151   0.0000      17.800407       484.3737 
 152   0.0000      17.800407       484.3737 
 153   0.0000      17.800407       484.3737 
 154   0.0000      17.886938       486.7283 
 155   0.0000      17.886938       486.7283 
 156   0.0000      17.886938       486.7283 
 157   0.0000      17.886938       486.7283 
 158   0.0000      17.886938       486.7283 
 159   0.0000      17.886938       486.7283 
 160   0.0000      17.886938       486.7283 
 161   0.0000      17.886938       486.7283 
 162   0.0000      17.886938       486.7283 
 163   0.0000      17.886938       486.7283 
 164   0.0000      17.886938       486.7283 
 165   0.0000      22.634777       615.9236 
 166   0.0000      22.634777       615.9236 
 167   0.0000      22.634777       615.9236 
 168   0.0000      22.634777       615.9236 
 169   0.0000      22.634777       615.9236 
 170   0.0000      22.634777       615.9236 
 171   0.0000      22.634777       615.9236 
 172   0.0000      28.045914       763.1681 
 173   0.0000      28.045914       763.1681 
 174   0.0000      28.045914       763.1681 
 175   0.0000      28.045914       763.1681 
 176   0.0000      28.045914       763.1681 
 177   0.0000      31.038692       844.6057 
 178   0.0000      63.301035      1722.5087 
 179   0.0000      63.301035      1722.5087 
 180   0.0000      63.301035      1722.5087 

                    ********************************
                    * MULLIKEN POPULATION ANALYSIS *
                    ********************************

--------------------------------------------
MULLIKEN ATOMIC CHARGES AND SPIN POPULATIONS
--------------------------------------------
   0 Xe:   -0.000000   -0.000000
Sum of atomic charges         :   -0.0000000
Sum of atomic spin populations:   -0.0000000

-----------------------------------------------------
MULLIKEN REDUCED ORBITAL CHARGES AND SPIN POPULATIONS
-----------------------------------------------------
CHARGE
  0 Xes       :    10.000000  s :    10.000000
      pz      :     8.000000  p :    24.000000
      px      :     8.000000
      py      :     8.000000
      dz2     :     4.000000  d :    20.000000
      dxz     :     4.000000
      dyz     :     4.000000
      dx2y2   :     4.000000
      dxy     :     4.000000
      f0      :     0.000000  f :     0.000000
      f+1     :     0.000000
      f-1     :     0.000000
      f+2     :     0.000000
      f-2     :     0.000000
      f+3     :     0.000000
      f-3     :     0.000000
      g0      :     0.000000  g :     0.000000
      g+1     :     0.000000
      g-1     :     0.000000
      g+2     :     0.000000
      g-2     :     0.000000
      g+3     :     0.000000
      g-3     :     0.000000
      g+4     :     0.000000
      g-4     :     0.000000
      h0      :     0.000000  h :     0.000000
      h+1     :     0.000000
      h-1     :     0.000000
      h+2     :     0.000000
      h-2     :     0.000000
      h+3     :     0.000000
      h-3     :     0.000000
      h+4     :     0.000000
      h-4     :     0.000000
      h+5     :     0.000000
      h-5     :     0.000000

SPIN
  0 Xes       :     0.000000  s :     0.000000
      pz      :    -0.000000  p :    -0.000000
      px      :    -0.000000
      py      :     0.000000
      dz2     :    -0.000000  d :    -0.000000
      dxz     :     0.000000
      dyz     :    -0.000000
      dx2y2   :    -0.000000
      dxy     :     0.000000
      f0      :     0.000000  f :     0.000000
      f+1     :     0.000000
      f-1     :    -0.000000
      f+2     :     0.000000
      f-2     :     0.000000
      f+3     :     0.000000
      f-3     :     0.000000
      g0      :     0.000000  g :     0.000000
      g+1     :    -0.000000
      g-1     :     0.000000
      g+2     :     0.000000
      g-2     :     0.000000
      g+3     :    -0.000000
      g-3     :     0.000000
      g+4     :     0.000000
      g-4     :    -0.000000
      h0      :     0.000000  h :     0.000000
      h+1     :    -0.000000
      h-1     :     0.000000
      h+2     :    -0.000000
      h-2     :     0.000000
      h+3     :    -0.000000
      h-3     :     0.000000
      h+4     :     0.000000
      h-4     :    -0.000000
      h+5     :     0.000000
      h-5     :    -0.000000


                     *******************************
                     * LOEWDIN POPULATION ANALYSIS *
                     *******************************

-------------------------------------------
LOEWDIN ATOMIC CHARGES AND SPIN POPULATIONS
-------------------------------------------
   0 Xe:   -0.000000   -0.000000

----------------------------------------------------
LOEWDIN REDUCED ORBITAL CHARGES AND SPIN POPULATIONS
----------------------------------------------------
CHARGE
  0 Xes       :    10.000000  s :    10.000000
      pz      :     8.000000  p :    24.000000
      px      :     8.000000
      py      :     8.000000
      dz2     :     4.000000  d :    20.000000
      dxz     :     4.000000
      dyz     :     4.000000
      dx2y2   :     4.000000
      dxy     :     4.000000
      f0      :     0.000000  f :     0.000000
      f+1     :     0.000000
      f-1     :     0.000000
      f+2     :     0.000000
      f-2     :     0.000000
      f+3     :     0.000000
      f-3     :     0.000000
      g0      :     0.000000  g :     0.000000
      g+1     :     0.000000
      g-1     :     0.000000
      g+2     :     0.000000
      g-2     :     0.000000
      g+3     :     0.000000
      g-3     :     0.000000
      g+4     :     0.000000
      g-4     :     0.000000
      h0      :     0.000000  h :     0.000000
      h+1     :     0.000000
      h-1     :     0.000000
      h+2     :     0.000000
      h-2     :     0.000000
      h+3     :     0.000000
      h-3     :     0.000000
      h+4     :     0.000000
      h-4     :     0.000000
      h+5     :     0.000000
      h-5     :     0.000000

SPIN
  0 Xes       :     0.000000  s :     0.000000
      pz      :    -0.000000  p :    -0.000000
      px      :    -0.000000
      py      :     0.000000
      dz2     :    -0.000000  d :    -0.000000
      dxz     :     0.000000
      dyz     :    -0.000000
      dx2y2   :    -0.000000
      dxy     :     0.000000
      f0      :     0.000000  f :     0.000000
      f+1     :     0.000000
      f-1     :    -0.000000
      f+2     :     0.000000
      f-2     :     0.000000
      f+3     :     0.000000
      f-3     :     0.000000
      g0      :     0.000000  g :     0.000000
      g+1     :    -0.000000
      g-1     :     0.000000
      g+2     :     0.000000
      g-2     :     0.000000
      g+3     :    -0.000000
      g-3     :     0.000000
      g+4     :     0.000000
      g-4     :    -0.000000
      h0      :     0.000000  h :     0.000000
      h+1     :    -0.000000
      h-1     :     0.000000
      h+2     :    -0.000000
      h-2     :     0.000000
      h+3     :    -0.000000
      h-3     :     0.000000
      h+4     :     0.000000
      h-4     :    -0.000000
      h+5     :     0.000000
      h-5     :    -0.000000


                      *****************************
                      * MAYER POPULATION ANALYSIS *
                      *****************************

  NA   - Mulliken gross atomic population
  ZA   - Total nuclear charge
  QA   - Mulliken gross atomic charge
  VA   - Mayer's total valence
  BVA  - Mayer's bonded valence
  FA   - Mayer's free valence

  ATOM       NA         ZA         QA         VA         BVA        FA
  0 Xe    54.0000    54.0000    -0.0000    -0.0000     0.0000    -0.0000

  Mayer bond orders larger than 0.100000


-------
TIMINGS
-------

Total SCF time: 0 days 0 hours 0 min 14 sec 

Total time                  ....      14.626 sec
Sum of individual times     ....      13.190 sec  ( 90.2%)

Fock matrix formation       ....       7.719 sec  ( 52.8%)
  XC integration            ....       1.664 sec  ( 21.6% of F)
    Basis function eval.    ....       0.121 sec  (  7.3% of XC)
    Density eval.           ....       0.220 sec  ( 13.3% of XC)
    XC-Functional eval.     ....       0.047 sec  (  2.8% of XC)
    XC-Potential eval.      ....       0.286 sec  ( 17.2% of XC)
Diagonalization             ....       0.208 sec  (  1.4%)
Density matrix formation    ....       0.012 sec  (  0.1%)
Population analysis         ....       0.076 sec  (  0.5%)
Initial guess               ....       0.397 sec  (  2.7%)
Orbital Transformation      ....       0.000 sec  (  0.0%)
Orbital Orthonormalization  ....       0.000 sec  (  0.0%)
DIIS solution               ....       0.092 sec  (  0.6%)
SOSCF solution              ....       0.074 sec  (  0.5%)
Grid generation             ....       4.613 sec  ( 31.5%)

Maximum memory used throughout the entire SCF-calculation: 237.5 MB

-------------------------   --------------------
FINAL SINGLE POINT ENERGY     -7549.609180473023
-------------------------   --------------------


                            ***************************************
                            *     ORCA property calculations      *
                            ***************************************

                                    ---------------------
                                    Active property flags
                                    ---------------------
   (+) Dipole Moment


------------------------------------------------------------------------------
                       ORCA ELECTRIC PROPERTIES CALCULATION
------------------------------------------------------------------------------

Dipole Moment Calculation                       ... on
Quadrupole Moment Calculation                   ... off
Polarizability Calculation                      ... off
GBWName                                         ... Xe_sapporo-qzp-2012-diffuse_pbe.gbw
Electron density                                ... Xe_sapporo-qzp-2012-diffuse_pbe.scfp
The origin for moment calculation is the CENTER OF MASS  = ( 0.000000,  0.000000  0.000000)

-------------
DIPOLE MOMENT
-------------
                                X             Y             Z
Electronic contribution:      0.00000       0.00000       0.00000
Nuclear contribution   :      0.00000       0.00000       0.00000
                        -----------------------------------------
Total Dipole Moment    :      0.00000       0.00000       0.00000
                        -----------------------------------------
Magnitude (a.u.)       :      0.00000
Magnitude (Debye)      :      0.00000



--------------------
Rotational spectrum 
--------------------
 
Rotational constants in cm-1:     0.000000     0.000000     0.000000 
Rotational constants in MHz :     0.000000     0.000000     0.000000 

 Dipole components along the rotational axes: 
x,y,z [a.u.] :     0.000000     0.000000     0.000000 
x,y,z [Debye]:     0.000000     0.000000     0.000000 

 

Timings for individual modules:

Sum of individual times         ...       30.420 sec (=   0.507 min)
GTO integral calculation        ...        5.823 sec (=   0.097 min)  19.1 %
Relativistic integrals          ...        7.091 sec (=   0.118 min)  23.3 %
SCF iterations                  ...       17.506 sec (=   0.292 min)  57.5 %
                             ****ORCA TERMINATED NORMALLY****
TOTAL RUN TIME: 0 days 0 hours 0 minutes 37 seconds 155 msec
