
                                 *****************
                                 * O   R   C   A *
                                 *****************

                                            #,                                       
                                            ###                                      
                                            ####                                     
                                            #####                                    
                                            ######                                   
                                           ########,                                 
                                     ,,################,,,,,                         
                               ,,#################################,,                 
                          ,,##########################################,,             
                       ,#########################################, ''#####,          
                    ,#############################################,,   '####,        
                  ,##################################################,,,,####,       
                ,###########''''           ''''###############################       
              ,#####''   ,,,,##########,,,,          '''####'''          '####       
            ,##' ,,,,###########################,,,                        '##       
           ' ,,###''''                  '''############,,,                           
         ,,##''                                '''############,,,,        ,,,,,,###''
      ,#''                                            '''#######################'''  
     '                                                          ''''####''''         
             ,#######,   #######,   ,#######,      ##                                
            ,#'     '#,  ##    ##  ,#'     '#,    #''#        ######   ,####,        
            ##       ##  ##   ,#'  ##            #'  '#       #        #'  '#        
            ##       ##  #######   ##           ,######,      #####,   #    #        
            '#,     ,#'  ##    ##  '#,     ,#' ,#      #,         ##   #,  ,#        
             '#######'   ##     ##  '#######'  #'      '#     #####' # '####'        



                  #######################################################
                  #                        -***-                        #
                  #          Department of theory and spectroscopy      #
                  #    Directorship and core code : Frank Neese         #
                  #        Max Planck Institute fuer Kohlenforschung    #
                  #                Kaiser Wilhelm Platz 1               #
                  #                 D-45470 Muelheim/Ruhr               #
                  #                      Germany                        #
                  #                                                     #
                  #                  All rights reserved                #
                  #                        -***-                        #
                  #######################################################


                         Program Version 5.0.1 -  RELEASE  -


 With contributions from (in alphabetic order):
   Daniel Aravena         : Magnetic Suceptibility
   Michael Atanasov       : Ab Initio Ligand Field Theory (pilot matlab implementation)
   Alexander A. Auer      : GIAO ZORA, VPT2 properties, NMR spectrum
   Ute Becker             : Parallelization
   Giovanni Bistoni       : ED, misc. LED, open-shell LED, HFLD
   Martin Brehm           : Molecular dynamics
   Dmytro Bykov           : SCF Hessian
   Vijay G. Chilkuri      : MRCI spin determinant printing, contributions to CSF-ICE
   Dipayan Datta          : RHF DLPNO-CCSD density
   Achintya Kumar Dutta   : EOM-CC, STEOM-CC
   Dmitry Ganyushin       : Spin-Orbit,Spin-Spin,Magnetic field MRCI
   Miquel Garcia          : C-PCM and meta-GGA Hessian, CC/C-PCM, Gaussian charge scheme
   Yang Guo               : DLPNO-NEVPT2, F12-NEVPT2, CIM, IAO-localization
   Andreas Hansen         : Spin unrestricted coupled pair/coupled cluster methods
   Benjamin Helmich-Paris : MC-RPA, TRAH-SCF, COSX integrals
   Lee Huntington         : MR-EOM, pCC
   Robert Izsak           : Overlap fitted RIJCOSX, COSX-SCS-MP3, EOM
   Marcus Kettner         : VPT2
   Christian Kollmar      : KDIIS, OOCD, Brueckner-CCSD(T), CCSD density, CASPT2, CASPT2-K
   Simone Kossmann        : Meta GGA functionals, TD-DFT gradient, OOMP2, MP2 Hessian
   Martin Krupicka        : Initial AUTO-CI
   Lucas Lang             : DCDCAS
   Marvin Lechner         : AUTO-CI (C++ implementation), FIC-MRCC
   Dagmar Lenk            : GEPOL surface, SMD
   Dimitrios Liakos       : Extrapolation schemes; Compound Job, initial MDCI parallelization
   Dimitrios Manganas     : Further ROCIS development; embedding schemes
   Dimitrios Pantazis     : SARC Basis sets
   Anastasios Papadopoulos: AUTO-CI, single reference methods and gradients
   Taras Petrenko         : DFT Hessian,TD-DFT gradient, ASA, ECA, R-Raman, ABS, FL, XAS/XES, NRVS
   Peter Pinski           : DLPNO-MP2, DLPNO-MP2 Gradient
   Christoph Reimann      : Effective Core Potentials
   Marius Retegan         : Local ZFS, SOC
   Christoph Riplinger    : Optimizer, TS searches, QM/MM, DLPNO-CCSD(T), (RO)-DLPNO pert. Triples
   Tobias Risthaus        : Range-separated hybrids, TD-DFT gradient, RPA, STAB
   Michael Roemelt        : Original ROCIS implementation
   Masaaki Saitow         : Open-shell DLPNO-CCSD energy and density
   Barbara Sandhoefer     : DKH picture change effects
   Avijit Sen             : IP-ROCIS
   Kantharuban Sivalingam : CASSCF convergence, NEVPT2, FIC-MRCI
   Bernardo de Souza      : ESD, SOC TD-DFT
   Georgi Stoychev        : AutoAux, RI-MP2 NMR, DLPNO-MP2 response
   Willem Van den Heuvel  : Paramagnetic NMR
   Boris Wezisla          : Elementary symmetry handling
   Frank Wennmohs         : Technical directorship


 We gratefully acknowledge several colleagues who have allowed us to
 interface, adapt or use parts of their codes:
   Stefan Grimme, W. Hujo, H. Kruse, P. Pracht,  : VdW corrections, initial TS optimization,
                  C. Bannwarth, S. Ehlert          DFT functionals, gCP, sTDA/sTD-DF
   Ed Valeev, F. Pavosevic, A. Kumar             : LibInt (2-el integral package), F12 methods
   Garnet Chan, S. Sharma, J. Yang, R. Olivares  : DMRG
   Ulf Ekstrom                                   : XCFun DFT Library
   Mihaly Kallay                                 : mrcc  (arbitrary order and MRCC methods)
   Jiri Pittner, Ondrej Demel                    : Mk-CCSD
   Frank Weinhold                                : gennbo (NPA and NBO analysis)
   Christopher J. Cramer and Donald G. Truhlar   : smd solvation model
   Lars Goerigk                                  : TD-DFT with DH, B97 family of functionals
   V. Asgeirsson, H. Jonsson                     : NEB implementation
   FAccTs GmbH                                   : IRC, NEB, NEB-TS, DLPNO-Multilevel, CI-OPT
                                                   MM, QMMM, 2- and 3-layer-ONIOM, Crystal-QMMM,
                                                   LR-CPCM, SF, NACMEs, symmetry and pop. for TD-DFT,
                                                   nearIR, NL-DFT gradient (VV10), updates on ESD,
                                                   ML-optimized integration grids
   S Lehtola, MJT Oliveira, MAL Marques          : LibXC Library
   Liviu Ungur et al                             : ANISO software


 Your calculation uses the libint2 library for the computation of 2-el integrals
 For citations please refer to: http://libint.valeyev.net

 Your ORCA version has been built with support for libXC version: 5.1.0
 For citations please refer to: https://tddft.org/programs/libxc/

 This ORCA versions uses:
   CBLAS   interface :  Fast vector & matrix operations
   LAPACKE interface :  Fast linear algebra routines
   SCALAPACK package :  Parallel linear algebra routines
   Shared memory     :  Shared parallel matrices
   BLAS/LAPACK       :  OpenBLAS 0.3.15  USE64BITINT DYNAMIC_ARCH NO_AFFINITY Haswell SINGLE_THREADED
        Core in use  :  Haswell
   Copyright (c) 2011-2014, The OpenBLAS Project


SCAN-COORDS

Reading of a custom basis requested
Basis file         : Y_ano-rcc-vqzp.basis
READING GTO-BASIS: YTTRIUM
Basis successfully read

================================================================================

----- Orbital basis set information -----
================================================================================
                                        WARNINGS
                       Please study these warnings very carefully!
================================================================================


INFO   : the flag for use of the SHARK integral package has been found!

================================================================================
                                       INPUT FILE
================================================================================
NAME = Y_ano-rcc-vqzp_pbe.inp
|  1> !uks pbe nori verytightscf soscf notrah defgrid3
|  2> 
|  3> %pal
|  4>   nprocs 32
|  5> end
|  6> %coords
|  7>   charge 0
|  8>   mult 2
|  9>   units bohrs
| 10>   coords
| 11>     Y 0.0 0.0 0.0
| 12>   end
| 13> end
| 14> %basis
| 15>   gtoname "Y_ano-rcc-vqzp.basis"
| 16>   delECP Y
| 17> end
| 18> %rel
| 19>   method zora
| 20>   modelpot 1, 0, 0, 0
| 21>   c 137.035999084
| 22> endd                         ****END OF INPUT****
================================================================================

                       ****************************
                       * Single Point Calculation *
                       ****************************

---------------------------------
CARTESIAN COORDINATES (ANGSTROEM)
---------------------------------
   Y     0.000000    0.000000    0.000000

----------------------------
CARTESIAN COORDINATES (A.U.)
----------------------------
  NO LB      ZA    FRAG     MASS         X           Y           Z
   0  Y   39.0000    0    88.910    0.000000    0.000000    0.000000

--------------------------------
INTERNAL COORDINATES (ANGSTROEM)
--------------------------------
  Y     0   0   0     0.000000000000     0.00000000     0.00000000

---------------------------
INTERNAL COORDINATES (A.U.)
---------------------------
  Y     0   0   0     0.000000000000     0.00000000     0.00000000

---------------------
BASIS SET INFORMATION
---------------------
There are 1 groups of distinct atoms

 Group   1 Type  Y  : 168s126p65d18f8g2h contracted to 8s7p5d3f2g1h pattern {2121212121212121/18181818181818/1313131313/666/44/2}

Atom   0 Y   basis set group =>   1


           ************************************************************
           *        Program running with 32 parallel MPI-processes    *
           *              working on a common directory               *
           ************************************************************
------------------------------------------------------------------------------
                           ORCA GTO INTEGRAL CALCULATION
------------------------------------------------------------------------------
------------------------------------------------------------------------------
                   ___                                                        
                  /   \      - P O W E R E D   B Y -                         
                 /     \                                                     
                 |  |  |   _    _      __       _____    __    __             
                 |  |  |  | |  | |    /  \     |  _  \  |  |  /  |          
                  \  \/   | |  | |   /    \    | | | |  |  | /  /          
                 / \  \   | |__| |  /  /\  \   | |_| |  |  |/  /          
                |  |  |   |  __  | /  /__\  \  |    /   |      \           
                |  |  |   | |  | | |   __   |  |    \   |  |\   \          
                \     /   | |  | | |  |  |  |  | |\  \  |  | \   \       
                 \___/    |_|  |_| |__|  |__|  |_| \__\ |__|  \__/        
                                                                              
                      - O R C A' S   B I G   F R I E N D -                    
                                      &                                       
                       - I N T E G R A L  F E E D E R -                       
                                                                              
 v1 FN, 2020, v2 2021                                                         
------------------------------------------------------------------------------


Reading SHARK input file Y_ano-rcc-vqzp_pbe.SHARKINP.tmp ... ok
----------------------
SHARK INTEGRAL PACKAGE
----------------------

Number of atoms                             ...      1
Number of basis functions                   ...    104
Number of shells                            ...     26
Maximum angular momentum                    ...      5
Integral batch strategy                     ... SHARK/LIBINT Hybrid
RI-J (if used) integral strategy            ... SPLIT-RIJ (Revised 2003 algorithm where possible)
Printlevel                                  ...      1
Contraction scheme used                     ... SEGMENTED contraction
Coulomb Range Separation                    ... NOT USED
Exchange Range Separation                   ... NOT USED
Finite Nucleus Model                        ... NOT USED
Auxiliary Coulomb fitting basis             ... NOT available
Auxiliary J/K fitting basis                 ... NOT available
Auxiliary Correlation fitting basis         ... NOT available
Auxiliary 'external' fitting basis          ... NOT available
Integral threshold                          ...     1.000000e-12
Primitive cut-off                           ...     1.000000e-14
Primitive pair pre-selection threshold      ...     1.000000e-14

Calculating pre-screening integrals         ... done ( 33.7 sec) Dimension = 26
Organizing shell pair data                  ... done (  0.4 sec)
Shell pair information
Total number of shell pairs                 ...       351
Shell pairs after pre-screening             ...       351
Total number of primitive shell pairs       ...     78277
Primitive shell pairs kept                  ...     78277
          la=0 lb=0:     36 shell pairs
          la=1 lb=0:     56 shell pairs
          la=1 lb=1:     28 shell pairs
          la=2 lb=0:     40 shell pairs
          la=2 lb=1:     35 shell pairs
          la=2 lb=2:     15 shell pairs
          la=3 lb=0:     24 shell pairs
          la=3 lb=1:     21 shell pairs
          la=3 lb=2:     15 shell pairs
          la=3 lb=3:      6 shell pairs
          la=4 lb=0:     16 shell pairs
          la=4 lb=1:     14 shell pairs
          la=4 lb=2:     10 shell pairs
          la=4 lb=3:      6 shell pairs
          la=4 lb=4:      3 shell pairs
          la=5 lb=0:      8 shell pairs
          la=5 lb=1:      7 shell pairs
          la=5 lb=2:      5 shell pairs
          la=5 lb=3:      3 shell pairs
          la=5 lb=4:      2 shell pairs
          la=5 lb=5:      1 shell pairs

Calculating one electron integrals          ... done (  0.2 sec)
Calculating Nuclear repulsion               ... done (  0.0 sec) ENN=      0.000000000000 Eh

SHARK setup successfully completed in  34.8 seconds

Maximum memory used throughout the entire GTOINT-calculation: 279.7 MB


           ************************************************************
           *        Program running with 32 parallel MPI-processes    *
           *              working on a common directory               *
           ************************************************************
------------------------------------------------------------------------------
                          ORCA RELATIVISTIC HAMILTONIAN
------------------------------------------------------------------------------

Relativistic Method            ... ZORA(MP)
Treatment of potential         ... Van Wuellen
Nucleus model                  ... Point Nucleus
Speed of light used            ... 137.03599908400000


            *************************************************
            *         ZERO ORDER REGULAR APPROXIMATION      *
            *                     ZORA(MP)                  *
            *            Programmed by FN according to      *
            *                   C. van Wuellen              *
            *       J. Chem. Phys. (1998) vol 109, 392-399  *
            *************************************************

Terms included in model potential: +V(e,N)
Basis function cutoff value   ... 1.000000e-12
Loading the fitted atomic densities  (DKH4)  ... done
Calculating the cutoffs                      ... done
Number of fit functions                      ... 28
Setting up the integration grid ... done

Maximum memory used throughout the entire REL-calculation: 23.6 MB


           ************************************************************
           *        Program running with 32 parallel MPI-processes    *
           *              working on a common directory               *
           ************************************************************
-------------------------------------------------------------------------------
                                 ORCA SCF
-------------------------------------------------------------------------------

------------
SCF SETTINGS
------------
Hamiltonian:
 Density Functional     Method          .... DFT(GTOs)
 Exchange Functional    Exchange        .... PBE
   PBE kappa parameter   XKappa         ....  0.804000
   PBE mue parameter    XMuePBE         ....  0.219520
 Correlation Functional Correlation     .... PBE
   PBE beta parameter  CBetaPBE         ....  0.066725
 LDA part of GGA corr.  LDAOpt          .... PW91-LDA
 Gradients option       PostSCFGGA      .... off
   Density functional embedding theory  .... OFF
   NL short-range parameter             ....  6.400000

Relativistic Settings:
 Scalar relativistic method             .... ZORA
 Speed of light used       Velit        ....       137.035999
Orbital energies will be scaled


General Settings:
 Integral files         IntName         .... Y_ano-rcc-vqzp_pbe
 Hartree-Fock type      HFTyp           .... UHF
 Total Charge           Charge          ....    0
 Multiplicity           Mult            ....    2
 Number of Electrons    NEL             ....   39
 Basis Dimension        Dim             ....  104
 Nuclear Repulsion      ENuc            ....      0.0000000000 Eh

Convergence Acceleration:
 DIIS                   CNVDIIS         .... on
   Start iteration      DIISMaxIt       ....    12
   Startup error        DIISStart       ....  0.200000
   # of expansion vecs  DIISMaxEq       ....     5
   Bias factor          DIISBfac        ....   1.050
   Max. coefficient     DIISMaxC        ....  10.000
 Trust-Rad. Augm. Hess. CNVTRAH         .... off
 SOSCF                  CNVSOSCF        .... on
   Start iteration      SOSCFMaxIt      ....   150
   Startup grad/error   SOSCFStart      ....  0.003300
 Level Shifting         CNVShift        .... on
   Level shift para.    LevelShift      ....    0.2500
   Turn off err/grad.   ShiftErr        ....    0.0010
 Zerner damping         CNVZerner       .... off
 Static damping         CNVDamp         .... on
   Fraction old density DampFac         ....    0.7000
   Max. Damping (<1)    DampMax         ....    0.9800
   Min. Damping (>=0)   DampMin         ....    0.0000
   Turn off err/grad.   DampErr         ....    0.1000
 Fernandez-Rico         CNVRico         .... off

SCF Procedure:
 Maximum # iterations   MaxIter         ....   125
 SCF integral mode      SCFMode         .... Direct
   Integral package                     .... SHARK and LIBINT hybrid scheme
 Reset frequency        DirectResetFreq ....    20
 Integral Threshold     Thresh          ....  1.000e-12 Eh
 Primitive CutOff       TCut            ....  1.000e-14 Eh

Convergence Tolerance:
 Convergence Check Mode ConvCheckMode   .... Total+1el-Energy
 Convergence forced     ConvForced      .... 0
 Energy Change          TolE            ....  1.000e-09 Eh
 1-El. energy change                    ....  1.000e-06 Eh
 Orbital Gradient       TolG            ....  2.000e-06
 Orbital Rotation angle TolX            ....  2.000e-06
 DIIS Error             TolErr          ....  1.000e-08


Diagonalization of the overlap matrix:
Smallest eigenvalue                        ... 1.000e+00
Time for diagonalization                   ...    0.009 sec
Threshold for overlap eigenvalues          ... 1.000e-08
Number of eigenvalues below threshold      ... 0
Time for construction of square roots      ...    0.028 sec
Total time needed                          ...    0.039 sec

Time for model grid setup =    0.224 sec

------------------------------
INITIAL GUESS: MODEL POTENTIAL
------------------------------
Loading ZORA relativistic densities                ... done
Calculating cut-offs                               ... done
Initializing the effective Hamiltonian             ... done
Setting up the integral package (SHARK)            ... done
Starting the Coulomb interaction                   ... done (   0.6 sec)
Reading the grid                                   ... done
Mapping shells                                     ... done
Starting the XC term evaluation                    ... done (   0.0 sec)
  promolecular density results
     # of electrons  =     38.999999970
     EX              =   -109.546984611
     EC              =     -1.900629291
     EX+EC           =   -111.447613902
Transforming the Hamiltonian                       ... done (   0.0 sec)
Diagonalizing the Hamiltonian                      ... done (   0.0 sec)
Back transforming the eigenvectors                 ... done (   0.0 sec)
Now organizing SCF variables                       ... done
                      ------------------
                      INITIAL GUESS DONE (   0.9 sec)
                      ------------------
-------------------
DFT GRID GENERATION
-------------------

General Integration Accuracy     IntAcc      ... 4.959
Radial Grid Type                 RadialGrid  ... OptM3 with GC (2021)
Angular Grid (max. ang.)         AngularGrid ... 6 (Lebedev-590)
Angular grid pruning method      GridPruning ... 4 (adaptive)
Weight generation scheme         WeightScheme... Becke
Basis function cutoff            BFCut       ... 1.0000e-12
Integration weight cutoff        WCut        ... 1.0000e-14
Angular grids for H and He will be reduced by one unit
Partially contracted basis set               ... off
Rotationally invariant grid construction     ... off

Total number of grid points                  ...    65888
Total number of batches                      ...     1030
Average number of points per batch           ...       63
Average number of grid points per atom       ...    65888
Time for grid setup =    4.232 sec

--------------
SCF ITERATIONS
--------------
ITER       Energy         Delta-E        Max-DP      RMS-DP      [F,P]     Damp
               ***  Starting incremental Fock matrix formation  ***
  0  -3418.3307761077   0.000000000000 0.00782878  0.00010055  0.1036257 0.7000
  1  -3418.3328021610  -0.002026053273 0.01189162  0.00011237  0.0700245 0.7000
                               ***Turning on DIIS***
  2  -3418.3341108329  -0.001308671937 0.04548563  0.00039341  0.0474738 0.0000
  3  -3418.3370990598  -0.002988226878 0.01590095  0.00014225  0.0087347 0.0000
  4  -3418.3374569219  -0.000357862092 0.01463356  0.00013099  0.0029434 0.0000
  5  -3418.3376899462  -0.000233024323 0.01376479  0.00012825  0.0023584 0.0000
  6  -3418.3378937557  -0.000203809499 0.01430365  0.00014327  0.0018902 0.0000
  7  -3418.3381042624  -0.000210506674 0.01240521  0.00012649  0.0015649 0.0000
  8  -3418.3382755584  -0.000171296046 0.01304272  0.00014185  0.0012535 0.0000
  9  -3418.3384506290  -0.000175070568 0.01071775  0.00011777  0.0010553 0.0000
 10  -3418.3385849150  -0.000134285972 0.05932373  0.00071034  0.0008498 0.0000
                      *** Initiating the SOSCF procedure ***
                           *** Shutting down DIIS ***
                      *** Re-Reading the Fockian *** 
                      *** Removing any level shift *** 
ITER      Energy       Delta-E        Grad      Rot      Max-DP    RMS-DP
 11  -3418.33910719  -0.0005222735  0.000145  0.000145  0.000338  0.000005
               *** Restarting incremental Fock matrix formation ***
 12  -3418.33910509   0.0000020980  0.001151  0.015914  0.013120  0.000154
 13  -3418.33916404  -0.0000589537  0.000707  0.026830  0.018745  0.000262
 14  -3418.33918787  -0.0000238305  0.000477  0.005729  0.004613  0.000058
 15  -3418.33919176  -0.0000038852  0.000117  0.000461  0.000319  0.000004
 16  -3418.33919186  -0.0000000999  0.000029  0.000380  0.000248  0.000003
 17  -3418.33919188  -0.0000000173  0.000012  0.000533  0.000346  0.000004
 18  -3418.33919189  -0.0000000085  0.000005  0.000164  0.000107  0.000001
 19  -3418.33919189  -0.0000000009  0.000002  0.000016  0.000012  0.000000
                  ***Gradient check signals convergence***
              ***Rediagonalizing the Fockian in SOSCF/NRSCF***

               *****************************************************
               *                     SUCCESS                       *
               *           SCF CONVERGED AFTER  20 CYCLES          *
               *****************************************************


----------------
TOTAL SCF ENERGY
----------------

Total Energy       :        -3418.33919189 Eh          -93017.73834 eV

Components:
Nuclear Repulsion  :            0.00000000 Eh               0.00000 eV
Electronic Energy  :        -3418.33919189 Eh          -93017.73834 eV
One Electron Energy:        -4710.89108353 Eh         -128189.86343 eV
Two Electron Energy:         1292.55189165 Eh           35172.12509 eV

Virial components:
Potential Energy   :        -6987.56587716 Eh         -190141.33412 eV
Kinetic Energy     :         3569.22668527 Eh           97123.59577 eV
Virial Ratio       :            1.95772544


DFT components:
N(Alpha)           :       19.999999995928 electrons
N(Beta)            :       18.999999996002 electrons
N(Total)           :       38.999999991930 electrons
E(X)               :     -108.223095999927 Eh       
E(C)               :       -1.897660724777 Eh       
E(XC)              :     -110.120756724704 Eh       
DFET-embed. en.    :        0.000000000000 Eh       

---------------
SCF CONVERGENCE
---------------

  Last Energy change         ...   -3.1832e-11  Tolerance :   1.0000e-09
  Last MAX-Density change    ...    7.3930e-06  Tolerance :   1.0000e-08
  Last RMS-Density change    ...    8.6675e-08  Tolerance :   1.0000e-09
  Last Orbital Gradient      ...    3.9012e-07  Tolerance :   2.0000e-06
  Last Orbital Rotation      ...    5.8343e-06  Tolerance :   2.0000e-06

             **** THE GBW FILE WAS UPDATED (Y_ano-rcc-vqzp_pbe.gbw) ****
             **** DENSITY Y_ano-rcc-vqzp_pbe.scfp WAS UPDATED ****
             **** ENERGY FILE WAS UPDATED (Y_ano-rcc-vqzp_pbe.en.tmp) ****
----------------------
UHF SPIN CONTAMINATION
----------------------

Warning: in a DFT calculation there is little theoretical justification to 
         calculate <S**2> as in Hartree-Fock theory. We will do it anyways
         but you should keep in mind that the values have only limited relevance

Expectation value of <S**2>     :     0.945787
Ideal value S*(S+1) for S=0.5   :     0.750000
Deviation                       :     0.195787

             **** THE GBW FILE WAS UPDATED (Y_ano-rcc-vqzp_pbe.gbw) ****
             **** DENSITY Y_ano-rcc-vqzp_pbe.scfp WAS UPDATED ****
----------------
ORBITAL ENERGIES
----------------
                 SPIN UP ORBITALS
  NO   OCC          E(Eh)            E(eV) 
   0   1.0000    -631.926118    -17195.5839 
   1   1.0000     -85.394477     -2323.7018 
   2   1.0000     -76.300734     -2076.2485 
   3   1.0000     -76.298518     -2076.1882 
   4   1.0000     -76.298518     -2076.1882 
   5   1.0000     -13.581646      -369.5754 
   6   1.0000     -10.595734      -288.3246 
   7   1.0000     -10.588440      -288.1261 
   8   1.0000     -10.588440      -288.1261 
   9   1.0000      -5.581629      -151.8838 
  10   1.0000      -5.580130      -151.8431 
  11   1.0000      -5.580130      -151.8431 
  12   1.0000      -5.575057      -151.7050 
  13   1.0000      -5.574708      -151.6955 
  14   1.0000      -1.758360       -47.8474 
  15   1.0000      -1.028792       -27.9948 
  16   1.0000      -1.024524       -27.8787 
  17   1.0000      -1.024524       -27.8787 
  18   1.0000      -0.151990        -4.1359 
  19   1.0000      -0.109368        -2.9760 
  20   0.0000      -0.088743        -2.4148 
  21   0.0000      -0.088742        -2.4148 
  22   0.0000      -0.086669        -2.3584 
  23   0.0000      -0.082359        -2.2411 
  24   0.0000      -0.055769        -1.5176 
  25   0.0000      -0.055769        -1.5176 
  26   0.0000      -0.046002        -1.2518 
  27   0.0000       0.023234         0.6322 
  28   0.0000       0.070603         1.9212 
  29   0.0000       0.078742         2.1427 
  30   0.0000       0.078742         2.1427 
  31   0.0000       0.079852         2.1729 
  32   0.0000       0.080574         2.1925 
  33   0.0000       0.083745         2.2788 
  34   0.0000       0.083745         2.2788 
  35   0.0000       0.092295         2.5115 
  36   0.0000       0.254517         6.9258 
  37   0.0000       0.254791         6.9332 
  38   0.0000       0.254791         6.9332 
  39   0.0000       0.268702         7.3117 
  40   0.0000       0.268702         7.3118 
  41   0.0000       0.268969         7.3190 
  42   0.0000       0.269985         7.3467 
  43   0.0000       0.457607        12.4521 
  44   0.0000       0.624966        17.0062 
  45   0.0000       0.638424        17.3724 
  46   0.0000       0.638425        17.3724 
  47   0.0000       0.639802        17.4099 
  48   0.0000       0.643903        17.5215 
  49   0.0000       0.802070        21.8254 
  50   0.0000       0.802070        21.8254 
  51   0.0000       0.810114        22.0443 
  52   0.0000       1.039391        28.2833 
  53   0.0000       1.041751        28.3475 
  54   0.0000       1.041752        28.3475 
  55   0.0000       1.050630        28.5891 
  56   0.0000       1.055017        28.7085 
  57   0.0000       1.055018        28.7085 
  58   0.0000       1.059574        28.8325 
  59   0.0000       1.191637        32.4261 
  60   0.0000       1.198433        32.6110 
  61   0.0000       1.199028        32.6272 
  62   0.0000       1.199030        32.6273 
  63   0.0000       1.199259        32.6335 
  64   0.0000       1.214364        33.0445 
  65   0.0000       1.217666        33.1344 
  66   0.0000       1.217666        33.1344 
  67   0.0000       1.221184        33.2301 
  68   0.0000       2.609226        71.0006 
  69   0.0000       2.615252        71.1646 
  70   0.0000       2.616150        71.1891 
  71   0.0000       2.616150        71.1891 
  72   0.0000       2.624225        71.4088 
  73   0.0000       2.890578        78.6566 
  74   0.0000       2.929399        79.7130 
  75   0.0000       2.931486        79.7698 
  76   0.0000       2.931486        79.7698 
  77   0.0000       2.932156        79.7880 
  78   0.0000       2.939411        79.9854 
  79   0.0000       2.939411        79.9854 
  80   0.0000       2.941035        80.0296 
  81   0.0000       3.677371       100.0663 
  82   0.0000       3.678789       100.1049 
  83   0.0000       3.678789       100.1049 
  84   0.0000       4.317118       117.4747 
  85   0.0000       4.317948       117.4973 
  86   0.0000       4.317948       117.4973 
  87   0.0000       4.319372       117.5361 
  88   0.0000       4.325237       117.6957 
  89   0.0000       4.327290       117.7516 
  90   0.0000       4.327290       117.7516 
  91   0.0000       4.327880       117.7676 
  92   0.0000       4.329304       117.8063 
  93   0.0000       5.549490       151.0093 
  94   0.0000       5.549834       151.0187 
  95   0.0000       5.549834       151.0187 
  96   0.0000       5.550311       151.0316 
  97   0.0000       5.555530       151.1737 
  98   0.0000       5.556336       151.1956 
  99   0.0000       5.556337       151.1956 
 100   0.0000       5.563290       151.3848 
 101   0.0000       5.563301       151.3851 
 102   0.0000       5.563309       151.3853 
 103   0.0000       5.563310       151.3853 

                 SPIN DOWN ORBITALS
  NO   OCC          E(Eh)            E(eV) 
   0   1.0000    -631.926208    -17195.5863 
   1   1.0000     -85.392908     -2323.6591 
   2   1.0000     -76.300690     -2076.2473 
   3   1.0000     -76.296852     -2076.1429 
   4   1.0000     -76.296852     -2076.1429 
   5   1.0000     -13.580702      -369.5497 
   6   1.0000     -10.594801      -288.2992 
   7   1.0000     -10.587378      -288.0972 
   8   1.0000     -10.587378      -288.0972 
   9   1.0000      -5.580087      -151.8419 
  10   1.0000      -5.578887      -151.8092 
  11   1.0000      -5.578887      -151.8092 
  12   1.0000      -5.575133      -151.7071 
  13   1.0000      -5.571040      -151.5957 
  14   1.0000      -1.746454       -47.5234 
  15   1.0000      -1.027878       -27.9700 
  16   1.0000      -1.003286       -27.3008 
  17   1.0000      -1.003285       -27.3008 
  18   1.0000      -0.143187        -3.8963 
  19   0.0000      -0.083557        -2.2737 
  20   0.0000      -0.082443        -2.2434 
  21   0.0000      -0.082443        -2.2434 
  22   0.0000      -0.068085        -1.8527 
  23   0.0000      -0.057996        -1.5782 
  24   0.0000      -0.051838        -1.4106 
  25   0.0000      -0.037476        -1.0198 
  26   0.0000      -0.037476        -1.0198 
  27   0.0000       0.028233         0.7683 
  28   0.0000       0.079187         2.1548 
  29   0.0000       0.080553         2.1920 
  30   0.0000       0.080553         2.1920 
  31   0.0000       0.082343         2.2407 
  32   0.0000       0.089289         2.4297 
  33   0.0000       0.095137         2.5888 
  34   0.0000       0.099781         2.7152 
  35   0.0000       0.099781         2.7152 
  36   0.0000       0.264694         7.2027 
  37   0.0000       0.266523         7.2525 
  38   0.0000       0.266523         7.2525 
  39   0.0000       0.270642         7.3645 
  40   0.0000       0.276998         7.5375 
  41   0.0000       0.291276         7.9260 
  42   0.0000       0.291276         7.9260 
  43   0.0000       0.470147        12.7934 
  44   0.0000       0.639010        17.3884 
  45   0.0000       0.643006        17.4971 
  46   0.0000       0.643006        17.4971 
  47   0.0000       0.655347        17.8329 
  48   0.0000       0.670023        18.2322 
  49   0.0000       0.801363        21.8062 
  50   0.0000       0.826925        22.5018 
  51   0.0000       0.826925        22.5018 
  52   0.0000       1.055199        28.7134 
  53   0.0000       1.057107        28.7653 
  54   0.0000       1.057107        28.7653 
  55   0.0000       1.061033        28.8722 
  56   0.0000       1.073237        29.2043 
  57   0.0000       1.085618        29.5412 
  58   0.0000       1.085618        29.5412 
  59   0.0000       1.210010        32.9260 
  60   0.0000       1.211584        32.9689 
  61   0.0000       1.211584        32.9689 
  62   0.0000       1.214386        33.0451 
  63   0.0000       1.223095        33.2821 
  64   0.0000       1.231366        33.5072 
  65   0.0000       1.231366        33.5072 
  66   0.0000       1.246144        33.9093 
  67   0.0000       1.246630        33.9225 
  68   0.0000       2.617441        71.2242 
  69   0.0000       2.620957        71.3199 
  70   0.0000       2.620957        71.3199 
  71   0.0000       2.629818        71.5610 
  72   0.0000       2.642869        71.9161 
  73   0.0000       2.899652        78.9035 
  74   0.0000       2.936627        79.9097 
  75   0.0000       2.937617        79.9366 
  76   0.0000       2.937617        79.9366 
  77   0.0000       2.939995        80.0013 
  78   0.0000       2.950297        80.2817 
  79   0.0000       2.958380        80.5016 
  80   0.0000       2.958381        80.5016 
  81   0.0000       3.674142        99.9785 
  82   0.0000       3.694543       100.5336 
  83   0.0000       3.694543       100.5336 
  84   0.0000       4.326734       117.7364 
  85   0.0000       4.326885       117.7405 
  86   0.0000       4.326885       117.7405 
  87   0.0000       4.327010       117.7439 
  88   0.0000       4.339398       118.0810 
  89   0.0000       4.343110       118.1820 
  90   0.0000       4.343110       118.1820 
  91   0.0000       4.354171       118.4830 
  92   0.0000       4.355001       118.5056 
  93   0.0000       5.560846       151.3183 
  94   0.0000       5.560922       151.3204 
  95   0.0000       5.560922       151.3204 
  96   0.0000       5.560986       151.3221 
  97   0.0000       5.573505       151.6628 
  98   0.0000       5.575722       151.7231 
  99   0.0000       5.575722       151.7231 
 100   0.0000       5.581476       151.8797 
 101   0.0000       5.583681       151.9397 
 102   0.0000       5.594117       152.2237 
 103   0.0000       5.594117       152.2237 

                    ********************************
                    * MULLIKEN POPULATION ANALYSIS *
                    ********************************

--------------------------------------------
MULLIKEN ATOMIC CHARGES AND SPIN POPULATIONS
--------------------------------------------
   0  Y:   -0.000000    1.000000
Sum of atomic charges         :   -0.0000000
Sum of atomic spin populations:    1.0000000

-----------------------------------------------------
MULLIKEN REDUCED ORBITAL CHARGES AND SPIN POPULATIONS
-----------------------------------------------------
CHARGE
  0  Ys       :     9.885718  s :     9.885718
      pz      :     5.999877  p :    17.999674
      px      :     5.999903
      py      :     5.999894
      dz2     :     2.028717  d :    11.114044
      dxz     :     2.391380
      dyz     :     2.608265
      dx2y2   :     2.004047
      dxy     :     2.081635
      f0      :     0.000018  f :     0.000313
      f+1     :     0.000048
      f-1     :     0.000059
      f+2     :     0.000005
      f-2     :     0.000095
      f+3     :     0.000042
      f-3     :     0.000047
      g0      :     0.000093  g :     0.000238
      g+1     :     0.000003
      g-1     :     0.000004
      g+2     :     0.000004
      g-2     :     0.000080
      g+3     :     0.000035
      g-3     :     0.000009
      g+4     :     0.000009
      g-4     :     0.000002
      h0      :     0.000003  h :     0.000012
      h+1     :     0.000002
      h-1     :     0.000002
      h+2     :     0.000000
      h-2     :     0.000002
      h+3     :     0.000001
      h-3     :     0.000002
      h+4     :     0.000000
      h-4     :     0.000000
      h+5     :     0.000000
      h-5     :     0.000000

SPIN
  0  Ys       :     0.070005  s :     0.070005
      pz      :     0.000037  p :     0.000143
      px      :     0.000056
      py      :     0.000049
      dz2     :    -0.017325  d :     0.929819
      dxz     :     0.391362
      dyz     :     0.608254
      dx2y2   :    -0.002441
      dxy     :    -0.050031
      f0      :     0.000015  f :    -0.000143
      f+1     :    -0.000017
      f-1     :    -0.000012
      f+2     :    -0.000002
      f-2     :    -0.000050
      f+3     :    -0.000036
      f-3     :    -0.000041
      g0      :     0.000060  g :     0.000176
      g+1     :     0.000002
      g-1     :     0.000004
      g+2     :     0.000004
      g-2     :     0.000074
      g+3     :     0.000035
      g-3     :     0.000008
      g+4     :    -0.000009
      g-4     :    -0.000002
      h0      :    -0.000000  h :     0.000000
      h+1     :     0.000000
      h-1     :     0.000000
      h+2     :    -0.000000
      h-2     :    -0.000000
      h+3     :    -0.000000
      h-3     :     0.000000
      h+4     :     0.000000
      h-4     :     0.000000
      h+5     :     0.000000
      h-5     :     0.000000


                     *******************************
                     * LOEWDIN POPULATION ANALYSIS *
                     *******************************

-------------------------------------------
LOEWDIN ATOMIC CHARGES AND SPIN POPULATIONS
-------------------------------------------
   0  Y:   -0.000000    1.000000

----------------------------------------------------
LOEWDIN REDUCED ORBITAL CHARGES AND SPIN POPULATIONS
----------------------------------------------------
CHARGE
  0  Ys       :     9.885718  s :     9.885718
      pz      :     5.999877  p :    17.999674
      px      :     5.999903
      py      :     5.999894
      dz2     :     2.028717  d :    11.114044
      dxz     :     2.391380
      dyz     :     2.608265
      dx2y2   :     2.004047
      dxy     :     2.081635
      f0      :     0.000018  f :     0.000313
      f+1     :     0.000048
      f-1     :     0.000059
      f+2     :     0.000005
      f-2     :     0.000095
      f+3     :     0.000042
      f-3     :     0.000047
      g0      :     0.000093  g :     0.000238
      g+1     :     0.000003
      g-1     :     0.000004
      g+2     :     0.000004
      g-2     :     0.000080
      g+3     :     0.000035
      g-3     :     0.000009
      g+4     :     0.000009
      g-4     :     0.000002
      h0      :     0.000003  h :     0.000012
      h+1     :     0.000002
      h-1     :     0.000002
      h+2     :     0.000000
      h-2     :     0.000002
      h+3     :     0.000001
      h-3     :     0.000002
      h+4     :     0.000000
      h-4     :     0.000000
      h+5     :     0.000000
      h-5     :     0.000000

SPIN
  0  Ys       :     0.070005  s :     0.070005
      pz      :     0.000037  p :     0.000143
      px      :     0.000056
      py      :     0.000049
      dz2     :    -0.017325  d :     0.929819
      dxz     :     0.391362
      dyz     :     0.608254
      dx2y2   :    -0.002441
      dxy     :    -0.050031
      f0      :     0.000015  f :    -0.000143
      f+1     :    -0.000017
      f-1     :    -0.000012
      f+2     :    -0.000002
      f-2     :    -0.000050
      f+3     :    -0.000036
      f-3     :    -0.000041
      g0      :     0.000060  g :     0.000176
      g+1     :     0.000002
      g-1     :     0.000004
      g+2     :     0.000004
      g-2     :     0.000074
      g+3     :     0.000035
      g-3     :     0.000008
      g+4     :    -0.000009
      g-4     :    -0.000002
      h0      :    -0.000000  h :     0.000000
      h+1     :     0.000000
      h-1     :     0.000000
      h+2     :    -0.000000
      h-2     :    -0.000000
      h+3     :    -0.000000
      h-3     :     0.000000
      h+4     :     0.000000
      h-4     :     0.000000
      h+5     :     0.000000
      h-5     :     0.000000


                      *****************************
                      * MAYER POPULATION ANALYSIS *
                      *****************************

  NA   - Mulliken gross atomic population
  ZA   - Total nuclear charge
  QA   - Mulliken gross atomic charge
  VA   - Mayer's total valence
  BVA  - Mayer's bonded valence
  FA   - Mayer's free valence

  ATOM       NA         ZA         QA         VA         BVA        FA
  0  Y    39.0000    39.0000    -0.0000     1.3916     0.0000     1.3916

  Mayer bond orders larger than 0.100000


-------
TIMINGS
-------

Total SCF time: 0 days 1 hours 5 min 25 sec 

Total time                  ....    3925.382 sec
Sum of individual times     ....    3922.877 sec  ( 99.9%)

Fock matrix formation       ....    3915.931 sec  ( 99.8%)
  XC integration            ....       7.963 sec  (  0.2% of F)
    Basis function eval.    ....       0.468 sec  (  5.9% of XC)
    Density eval.           ....       0.427 sec  (  5.4% of XC)
    XC-Functional eval.     ....       0.154 sec  (  1.9% of XC)
    XC-Potential eval.      ....       0.270 sec  (  3.4% of XC)
Diagonalization             ....       0.283 sec  (  0.0%)
Density matrix formation    ....       0.010 sec  (  0.0%)
Population analysis         ....       0.138 sec  (  0.0%)
Initial guess               ....       0.692 sec  (  0.0%)
Orbital Transformation      ....       0.000 sec  (  0.0%)
Orbital Orthonormalization  ....       0.000 sec  (  0.0%)
DIIS solution               ....       0.595 sec  (  0.0%)
SOSCF solution              ....       0.773 sec  (  0.0%)
Grid generation             ....       4.456 sec  (  0.1%)

Maximum memory used throughout the entire SCF-calculation: 265.8 MB

-------------------------   --------------------
FINAL SINGLE POINT ENERGY     -3418.339191886550
-------------------------   --------------------


                            ***************************************
                            *     ORCA property calculations      *
                            ***************************************

                                    ---------------------
                                    Active property flags
                                    ---------------------
   (+) Dipole Moment


------------------------------------------------------------------------------
                       ORCA ELECTRIC PROPERTIES CALCULATION
------------------------------------------------------------------------------

Dipole Moment Calculation                       ... on
Quadrupole Moment Calculation                   ... off
Polarizability Calculation                      ... off
GBWName                                         ... Y_ano-rcc-vqzp_pbe.gbw
Electron density                                ... Y_ano-rcc-vqzp_pbe.scfp
The origin for moment calculation is the CENTER OF MASS  = ( 0.000000,  0.000000  0.000000)

-------------
DIPOLE MOMENT
-------------
                                X             Y             Z
Electronic contribution:     -0.00000       0.00000       0.00000
Nuclear contribution   :      0.00000       0.00000       0.00000
                        -----------------------------------------
Total Dipole Moment    :     -0.00000       0.00000       0.00000
                        -----------------------------------------
Magnitude (a.u.)       :      0.00000
Magnitude (Debye)      :      0.00000



--------------------
Rotational spectrum 
--------------------
 
Rotational constants in cm-1:     0.000000     0.000000     0.000000 
Rotational constants in MHz :     0.000000     0.000000     0.000000 

 Dipole components along the rotational axes: 
x,y,z [a.u.] :    -0.000000     0.000000     0.000000 
x,y,z [Debye]:    -0.000000     0.000000     0.000000 

 

Timings for individual modules:

Sum of individual times         ...     3976.557 sec (=  66.276 min)
GTO integral calculation        ...       39.159 sec (=   0.653 min)   1.0 %
Relativistic integrals          ...        9.035 sec (=   0.151 min)   0.2 %
SCF iterations                  ...     3928.363 sec (=  65.473 min)  98.8 %
                             ****ORCA TERMINATED NORMALLY****
TOTAL RUN TIME: 0 days 1 hours 6 minutes 25 seconds 287 msec
