
                                 *****************
                                 * O   R   C   A *
                                 *****************

                                            #,                                       
                                            ###                                      
                                            ####                                     
                                            #####                                    
                                            ######                                   
                                           ########,                                 
                                     ,,################,,,,,                         
                               ,,#################################,,                 
                          ,,##########################################,,             
                       ,#########################################, ''#####,          
                    ,#############################################,,   '####,        
                  ,##################################################,,,,####,       
                ,###########''''           ''''###############################       
              ,#####''   ,,,,##########,,,,          '''####'''          '####       
            ,##' ,,,,###########################,,,                        '##       
           ' ,,###''''                  '''############,,,                           
         ,,##''                                '''############,,,,        ,,,,,,###''
      ,#''                                            '''#######################'''  
     '                                                          ''''####''''         
             ,#######,   #######,   ,#######,      ##                                
            ,#'     '#,  ##    ##  ,#'     '#,    #''#        ######   ,####,        
            ##       ##  ##   ,#'  ##            #'  '#       #        #'  '#        
            ##       ##  #######   ##           ,######,      #####,   #    #        
            '#,     ,#'  ##    ##  '#,     ,#' ,#      #,         ##   #,  ,#        
             '#######'   ##     ##  '#######'  #'      '#     #####' # '####'        



                  #######################################################
                  #                        -***-                        #
                  #          Department of theory and spectroscopy      #
                  #    Directorship and core code : Frank Neese         #
                  #        Max Planck Institute fuer Kohlenforschung    #
                  #                Kaiser Wilhelm Platz 1               #
                  #                 D-45470 Muelheim/Ruhr               #
                  #                      Germany                        #
                  #                                                     #
                  #                  All rights reserved                #
                  #                        -***-                        #
                  #######################################################


                         Program Version 5.0.1 -  RELEASE  -


 With contributions from (in alphabetic order):
   Daniel Aravena         : Magnetic Suceptibility
   Michael Atanasov       : Ab Initio Ligand Field Theory (pilot matlab implementation)
   Alexander A. Auer      : GIAO ZORA, VPT2 properties, NMR spectrum
   Ute Becker             : Parallelization
   Giovanni Bistoni       : ED, misc. LED, open-shell LED, HFLD
   Martin Brehm           : Molecular dynamics
   Dmytro Bykov           : SCF Hessian
   Vijay G. Chilkuri      : MRCI spin determinant printing, contributions to CSF-ICE
   Dipayan Datta          : RHF DLPNO-CCSD density
   Achintya Kumar Dutta   : EOM-CC, STEOM-CC
   Dmitry Ganyushin       : Spin-Orbit,Spin-Spin,Magnetic field MRCI
   Miquel Garcia          : C-PCM and meta-GGA Hessian, CC/C-PCM, Gaussian charge scheme
   Yang Guo               : DLPNO-NEVPT2, F12-NEVPT2, CIM, IAO-localization
   Andreas Hansen         : Spin unrestricted coupled pair/coupled cluster methods
   Benjamin Helmich-Paris : MC-RPA, TRAH-SCF, COSX integrals
   Lee Huntington         : MR-EOM, pCC
   Robert Izsak           : Overlap fitted RIJCOSX, COSX-SCS-MP3, EOM
   Marcus Kettner         : VPT2
   Christian Kollmar      : KDIIS, OOCD, Brueckner-CCSD(T), CCSD density, CASPT2, CASPT2-K
   Simone Kossmann        : Meta GGA functionals, TD-DFT gradient, OOMP2, MP2 Hessian
   Martin Krupicka        : Initial AUTO-CI
   Lucas Lang             : DCDCAS
   Marvin Lechner         : AUTO-CI (C++ implementation), FIC-MRCC
   Dagmar Lenk            : GEPOL surface, SMD
   Dimitrios Liakos       : Extrapolation schemes; Compound Job, initial MDCI parallelization
   Dimitrios Manganas     : Further ROCIS development; embedding schemes
   Dimitrios Pantazis     : SARC Basis sets
   Anastasios Papadopoulos: AUTO-CI, single reference methods and gradients
   Taras Petrenko         : DFT Hessian,TD-DFT gradient, ASA, ECA, R-Raman, ABS, FL, XAS/XES, NRVS
   Peter Pinski           : DLPNO-MP2, DLPNO-MP2 Gradient
   Christoph Reimann      : Effective Core Potentials
   Marius Retegan         : Local ZFS, SOC
   Christoph Riplinger    : Optimizer, TS searches, QM/MM, DLPNO-CCSD(T), (RO)-DLPNO pert. Triples
   Tobias Risthaus        : Range-separated hybrids, TD-DFT gradient, RPA, STAB
   Michael Roemelt        : Original ROCIS implementation
   Masaaki Saitow         : Open-shell DLPNO-CCSD energy and density
   Barbara Sandhoefer     : DKH picture change effects
   Avijit Sen             : IP-ROCIS
   Kantharuban Sivalingam : CASSCF convergence, NEVPT2, FIC-MRCI
   Bernardo de Souza      : ESD, SOC TD-DFT
   Georgi Stoychev        : AutoAux, RI-MP2 NMR, DLPNO-MP2 response
   Willem Van den Heuvel  : Paramagnetic NMR
   Boris Wezisla          : Elementary symmetry handling
   Frank Wennmohs         : Technical directorship


 We gratefully acknowledge several colleagues who have allowed us to
 interface, adapt or use parts of their codes:
   Stefan Grimme, W. Hujo, H. Kruse, P. Pracht,  : VdW corrections, initial TS optimization,
                  C. Bannwarth, S. Ehlert          DFT functionals, gCP, sTDA/sTD-DF
   Ed Valeev, F. Pavosevic, A. Kumar             : LibInt (2-el integral package), F12 methods
   Garnet Chan, S. Sharma, J. Yang, R. Olivares  : DMRG
   Ulf Ekstrom                                   : XCFun DFT Library
   Mihaly Kallay                                 : mrcc  (arbitrary order and MRCC methods)
   Jiri Pittner, Ondrej Demel                    : Mk-CCSD
   Frank Weinhold                                : gennbo (NPA and NBO analysis)
   Christopher J. Cramer and Donald G. Truhlar   : smd solvation model
   Lars Goerigk                                  : TD-DFT with DH, B97 family of functionals
   V. Asgeirsson, H. Jonsson                     : NEB implementation
   FAccTs GmbH                                   : IRC, NEB, NEB-TS, DLPNO-Multilevel, CI-OPT
                                                   MM, QMMM, 2- and 3-layer-ONIOM, Crystal-QMMM,
                                                   LR-CPCM, SF, NACMEs, symmetry and pop. for TD-DFT,
                                                   nearIR, NL-DFT gradient (VV10), updates on ESD,
                                                   ML-optimized integration grids
   S Lehtola, MJT Oliveira, MAL Marques          : LibXC Library
   Liviu Ungur et al                             : ANISO software


 Your calculation uses the libint2 library for the computation of 2-el integrals
 For citations please refer to: http://libint.valeyev.net

 Your ORCA version has been built with support for libXC version: 5.1.0
 For citations please refer to: https://tddft.org/programs/libxc/

 This ORCA versions uses:
   CBLAS   interface :  Fast vector & matrix operations
   LAPACKE interface :  Fast linear algebra routines
   SCALAPACK package :  Parallel linear algebra routines
   Shared memory     :  Shared parallel matrices
   BLAS/LAPACK       :  OpenBLAS 0.3.15  USE64BITINT DYNAMIC_ARCH NO_AFFINITY Haswell SINGLE_THREADED
        Core in use  :  Haswell
   Copyright (c) 2011-2014, The OpenBLAS Project


SCAN-COORDS

Reading of a custom basis requested
Basis file         : Zr_ugbs.basis
READING GTO-BASIS: ZIRCONIUM
Basis successfully read

================================================================================

----- Orbital basis set information -----
================================================================================
                                        WARNINGS
                       Please study these warnings very carefully!
================================================================================


INFO   : the flag for use of the SHARK integral package has been found!

================================================================================
                                       INPUT FILE
================================================================================
NAME = Zr_ugbs_pbe.inp
|  1> !uks pbe nori verytightscf soscf notrah defgrid3
|  2> 
|  3> %pal
|  4>   nprocs 32
|  5> end
|  6> %coords
|  7>   charge 0
|  8>   mult 3
|  9>   units bohrs
| 10>   coords
| 11>     Zr 0.0 0.0 0.0
| 12>   end
| 13> end
| 14> %basis
| 15>   gtoname "Zr_ugbs.basis"
| 16>   delECP Zr
| 17> end
| 18> %rel
| 19>   method zora
| 20>   modelpot 1, 0, 0, 0
| 21>   c 137.035999084
| 22> endd                         ****END OF INPUT****
================================================================================

                       ****************************
                       * Single Point Calculation *
                       ****************************

---------------------------------
CARTESIAN COORDINATES (ANGSTROEM)
---------------------------------
  Zr     0.000000    0.000000    0.000000

----------------------------
CARTESIAN COORDINATES (A.U.)
----------------------------
  NO LB      ZA    FRAG     MASS         X           Y           Z
   0 Zr   40.0000    0    91.220    0.000000    0.000000    0.000000

--------------------------------
INTERNAL COORDINATES (ANGSTROEM)
--------------------------------
 Zr     0   0   0     0.000000000000     0.00000000     0.00000000

---------------------------
INTERNAL COORDINATES (A.U.)
---------------------------
 Zr     0   0   0     0.000000000000     0.00000000     0.00000000

---------------------
BASIS SET INFORMATION
---------------------
There are 1 groups of distinct atoms

 Group   1 Type Zr  : 30s22p18d contracted to 30s22p18d pattern {111111111111111111111111111111/1111111111111111111111/111111111111111111}

Atom   0Zr   basis set group =>   1


           ************************************************************
           *        Program running with 32 parallel MPI-processes    *
           *              working on a common directory               *
           ************************************************************
------------------------------------------------------------------------------
                           ORCA GTO INTEGRAL CALCULATION
------------------------------------------------------------------------------
------------------------------------------------------------------------------
                   ___                                                        
                  /   \      - P O W E R E D   B Y -                         
                 /     \                                                     
                 |  |  |   _    _      __       _____    __    __             
                 |  |  |  | |  | |    /  \     |  _  \  |  |  /  |          
                  \  \/   | |  | |   /    \    | | | |  |  | /  /          
                 / \  \   | |__| |  /  /\  \   | |_| |  |  |/  /          
                |  |  |   |  __  | /  /__\  \  |    /   |      \           
                |  |  |   | |  | | |   __   |  |    \   |  |\   \          
                \     /   | |  | | |  |  |  |  | |\  \  |  | \   \       
                 \___/    |_|  |_| |__|  |__|  |_| \__\ |__|  \__/        
                                                                              
                      - O R C A' S   B I G   F R I E N D -                    
                                      &                                       
                       - I N T E G R A L  F E E D E R -                       
                                                                              
 v1 FN, 2020, v2 2021                                                         
------------------------------------------------------------------------------


Reading SHARK input file Zr_ugbs_pbe.SHARKINP.tmp ... ok
----------------------
SHARK INTEGRAL PACKAGE
----------------------

Number of atoms                             ...      1
Number of basis functions                   ...    186
Number of shells                            ...     70
Maximum angular momentum                    ...      2
Integral batch strategy                     ... SHARK/LIBINT Hybrid
RI-J (if used) integral strategy            ... SPLIT-RIJ (Revised 2003 algorithm where possible)
Printlevel                                  ...      1
Contraction scheme used                     ... SEGMENTED contraction
Coulomb Range Separation                    ... NOT USED
Exchange Range Separation                   ... NOT USED
Finite Nucleus Model                        ... NOT USED
Auxiliary Coulomb fitting basis             ... NOT available
Auxiliary J/K fitting basis                 ... NOT available
Auxiliary Correlation fitting basis         ... NOT available
Auxiliary 'external' fitting basis          ... NOT available
Integral threshold                          ...     1.000000e-12
Primitive cut-off                           ...     1.000000e-14
Primitive pair pre-selection threshold      ...     1.000000e-14

Calculating pre-screening integrals         ... done (  0.4 sec) Dimension = 70
Organizing shell pair data                  ... done (  0.1 sec)
Shell pair information
Total number of shell pairs                 ...      2485
Shell pairs after pre-screening             ...      2485
Total number of primitive shell pairs       ...      2485
Primitive shell pairs kept                  ...      2485
          la=0 lb=0:    465 shell pairs
          la=1 lb=0:    660 shell pairs
          la=1 lb=1:    253 shell pairs
          la=2 lb=0:    540 shell pairs
          la=2 lb=1:    396 shell pairs
          la=2 lb=2:    171 shell pairs

Calculating one electron integrals          ... done (  0.1 sec)
Calculating Nuclear repulsion               ... done (  0.0 sec) ENN=      0.000000000000 Eh

SHARK setup successfully completed in   1.1 seconds

Maximum memory used throughout the entire GTOINT-calculation: 6.0 MB


           ************************************************************
           *        Program running with 32 parallel MPI-processes    *
           *              working on a common directory               *
           ************************************************************
------------------------------------------------------------------------------
                          ORCA RELATIVISTIC HAMILTONIAN
------------------------------------------------------------------------------

Relativistic Method            ... ZORA(MP)
Treatment of potential         ... Van Wuellen
Nucleus model                  ... Point Nucleus
Speed of light used            ... 137.03599908400000


            *************************************************
            *         ZERO ORDER REGULAR APPROXIMATION      *
            *                     ZORA(MP)                  *
            *            Programmed by FN according to      *
            *                   C. van Wuellen              *
            *       J. Chem. Phys. (1998) vol 109, 392-399  *
            *************************************************

Terms included in model potential: +V(e,N)
Basis function cutoff value   ... 1.000000e-12
Loading the fitted atomic densities  (DKH4)  ... done
Calculating the cutoffs                      ... done
Number of fit functions                      ... 28
Setting up the integration grid ... done

Maximum memory used throughout the entire REL-calculation: 23.8 MB


           ************************************************************
           *        Program running with 32 parallel MPI-processes    *
           *              working on a common directory               *
           ************************************************************
-------------------------------------------------------------------------------
                                 ORCA SCF
-------------------------------------------------------------------------------

------------
SCF SETTINGS
------------
Hamiltonian:
 Density Functional     Method          .... DFT(GTOs)
 Exchange Functional    Exchange        .... PBE
   PBE kappa parameter   XKappa         ....  0.804000
   PBE mue parameter    XMuePBE         ....  0.219520
 Correlation Functional Correlation     .... PBE
   PBE beta parameter  CBetaPBE         ....  0.066725
 LDA part of GGA corr.  LDAOpt          .... PW91-LDA
 Gradients option       PostSCFGGA      .... off
   Density functional embedding theory  .... OFF
   NL short-range parameter             ....  6.400000

Relativistic Settings:
 Scalar relativistic method             .... ZORA
 Speed of light used       Velit        ....       137.035999
Orbital energies will be scaled


General Settings:
 Integral files         IntName         .... Zr_ugbs_pbe
 Hartree-Fock type      HFTyp           .... UHF
 Total Charge           Charge          ....    0
 Multiplicity           Mult            ....    3
 Number of Electrons    NEL             ....   40
 Basis Dimension        Dim             ....  186
 Nuclear Repulsion      ENuc            ....      0.0000000000 Eh

Convergence Acceleration:
 DIIS                   CNVDIIS         .... on
   Start iteration      DIISMaxIt       ....    12
   Startup error        DIISStart       ....  0.200000
   # of expansion vecs  DIISMaxEq       ....     5
   Bias factor          DIISBfac        ....   1.050
   Max. coefficient     DIISMaxC        ....  10.000
 Trust-Rad. Augm. Hess. CNVTRAH         .... off
 SOSCF                  CNVSOSCF        .... on
   Start iteration      SOSCFMaxIt      ....   150
   Startup grad/error   SOSCFStart      ....  0.003300
 Level Shifting         CNVShift        .... on
   Level shift para.    LevelShift      ....    0.2500
   Turn off err/grad.   ShiftErr        ....    0.0010
 Zerner damping         CNVZerner       .... off
 Static damping         CNVDamp         .... on
   Fraction old density DampFac         ....    0.7000
   Max. Damping (<1)    DampMax         ....    0.9800
   Min. Damping (>=0)   DampMin         ....    0.0000
   Turn off err/grad.   DampErr         ....    0.1000
 Fernandez-Rico         CNVRico         .... off

SCF Procedure:
 Maximum # iterations   MaxIter         ....   125
 SCF integral mode      SCFMode         .... Direct
   Integral package                     .... SHARK and LIBINT hybrid scheme
 Reset frequency        DirectResetFreq ....    20
 Integral Threshold     Thresh          ....  1.000e-12 Eh
 Primitive CutOff       TCut            ....  1.000e-14 Eh

Convergence Tolerance:
 Convergence Check Mode ConvCheckMode   .... Total+1el-Energy
 Convergence forced     ConvForced      .... 0
 Energy Change          TolE            ....  1.000e-09 Eh
 1-El. energy change                    ....  1.000e-06 Eh
 Orbital Gradient       TolG            ....  2.000e-06
 Orbital Rotation angle TolX            ....  2.000e-06
 DIIS Error             TolErr          ....  1.000e-08


Diagonalization of the overlap matrix:
Smallest eigenvalue                        ... 6.125e-05
Time for diagonalization                   ...    0.183 sec
Threshold for overlap eigenvalues          ... 1.000e-08
Number of eigenvalues below threshold      ... 0
Time for construction of square roots      ...    0.330 sec
Total time needed                          ...    0.515 sec

Time for model grid setup =    0.246 sec

------------------------------
INITIAL GUESS: MODEL POTENTIAL
------------------------------
Loading ZORA relativistic densities                ... done
Calculating cut-offs                               ... done
Initializing the effective Hamiltonian             ... done
Setting up the integral package (SHARK)            ... done
Starting the Coulomb interaction                   ... done (   3.6 sec)
Reading the grid                                   ... done
Mapping shells                                     ... done
Starting the XC term evaluation                    ... done (   0.4 sec)
  promolecular density results
     # of electrons  =     40.000491917
     EX              =   -114.305272440
     EC              =     -1.962646121
     EX+EC           =   -116.267918561
Transforming the Hamiltonian                       ... done (   0.1 sec)
Diagonalizing the Hamiltonian                      ... done (   0.2 sec)
Back transforming the eigenvectors                 ... done (   0.1 sec)
Now organizing SCF variables                       ... done
                      ------------------
                      INITIAL GUESS DONE (   5.1 sec)
                      ------------------
-------------------
DFT GRID GENERATION
-------------------

General Integration Accuracy     IntAcc      ... 4.959
Radial Grid Type                 RadialGrid  ... OptM3 with GC (2021)
Angular Grid (max. ang.)         AngularGrid ... 6 (Lebedev-590)
Angular grid pruning method      GridPruning ... 4 (adaptive)
Weight generation scheme         WeightScheme... Becke
Basis function cutoff            BFCut       ... 1.0000e-12
Integration weight cutoff        WCut        ... 1.0000e-14
Angular grids for H and He will be reduced by one unit
Partially contracted basis set               ... off
Rotationally invariant grid construction     ... off

Total number of grid points                  ...    65888
Total number of batches                      ...     1030
Average number of points per batch           ...       63
Average number of grid points per atom       ...    65888
Time for grid setup =    4.322 sec

--------------
SCF ITERATIONS
--------------
ITER       Energy         Delta-E        Max-DP      RMS-DP      [F,P]     Damp
               ***  Starting incremental Fock matrix formation  ***
  0  -3643.5907301073   0.000000000000 0.01132702  0.00011657  1.2214252 0.7000
  1  -3643.5941637800  -0.003433672626 0.00886835  0.00011045  0.8431207 0.7000
  2  -3643.5969567619  -0.002792981930 0.00856030  0.00010154  0.5823980 0.7000
  3  -3643.5993429502  -0.002386188360 0.00782210  0.00009363  0.4025838 0.7000
  4  -3643.6013904874  -0.002047537160 0.00686338  0.00008653  0.2784395 0.7000
                               ***Turning on DIIS***
  5  -3643.6031375531  -0.001747065673 0.00596004  0.00007994  0.1926615 0.7000
  6  -3643.6046209376  -0.001483384534 0.00537203  0.00007389  0.1333583 0.7000
  7  -3643.6058662918  -0.001245354216 0.01617745  0.00022573  0.0930521 0.0000
  8  -3643.6093374295  -0.003471137636 0.00315882  0.00005469  0.0045501 0.0000
  9  -3643.6099064255  -0.000568996041 0.00231790  0.00005163  0.0044032 0.0000
 10  -3643.6104395428  -0.000533117250 0.00209497  0.00004903  0.0042383 0.0000
 11  -3643.6109520095  -0.000512466791 0.00199378  0.00004991  0.0040471 0.0000
 12  -3643.6114606344  -0.000508624863 0.00191459  0.00004767  0.0038594 0.0000
 13  -3643.6119574694  -0.000496834987 0.00268567  0.00005472  0.0036373 0.0000
 14  -3643.6124826438  -0.000525174419 0.00172747  0.00004811  0.0034531 0.0000
 15  -3643.6129782050  -0.000495561216 0.00375324  0.00006547  0.0032149 0.0000
 16  -3643.6135513265  -0.000573121492 0.00184688  0.00004852  0.0030208 0.0000
 17  -3643.6140391718  -0.000487845278 0.00414477  0.00007134  0.0027702 0.0000
 18  -3643.6146207135  -0.000581541723 0.00240029  0.00005476  0.0025546 0.0000
 19  -3643.6151289655  -0.000508251943 0.00480625  0.00007841  0.0023142 0.0000
               *** Restarting incremental Fock matrix formation ***
                                   *** Resetting DIIS ***
 20  -3643.6156813755  -0.000552410082 0.00195704  0.00005069  0.0037566 0.0000
 21  -3643.6160948567  -0.000413481119 0.00139585  0.00004045  0.0020518 0.0000
 22  -3643.6164289381  -0.000334081477 0.00194976  0.00003772  0.0019307 0.0000
 23  -3643.6167205711  -0.000291633006 0.00355884  0.00004371  0.0018072 0.0000
 24  -3643.6170045936  -0.000284022407 0.00566442  0.00005741  0.0017031 0.0000
 25  -3643.6172758017  -0.000271208164 0.00168161  0.00003484  0.0033664 0.0000
 26  -3643.6174838566  -0.000208054924 0.00374390  0.00004343  0.0014964 0.0000
                      *** Initiating the SOSCF procedure ***
                           *** Shutting down DIIS ***
                      *** Re-Reading the Fockian *** 
                      *** Removing any level shift *** 
ITER      Energy       Delta-E        Grad      Rot      Max-DP    RMS-DP
 27  -3643.61768025  -0.0001963914  0.002769  0.002769  0.002463  0.000034
               *** Restarting incremental Fock matrix formation ***
 28  -3643.61784066  -0.0001604076  0.002057  0.041135  0.006348  0.000142
 29  -3643.61831302  -0.0004723608  0.001744  0.056971  0.014770  0.000192
 30  -3643.61849715  -0.0001841308  0.001744  0.009605  0.003852  0.000054
 31  -3643.61858624  -0.0000890881  0.000592  0.008273  0.001312  0.000028
 32  -3643.61860440  -0.0000181629  0.000297  0.010184  0.002052  0.000027
 33  -3643.61861251  -0.0000081151  0.000116  0.004344  0.001367  0.000016
 34  -3643.61861450  -0.0000019819  0.000092  0.001644  0.000561  0.000007
 35  -3643.61861494  -0.0000004410  0.000047  0.000642  0.000150  0.000002
 36  -3643.61861502  -0.0000000838  0.000014  0.000459  0.000053  0.000001
 37  -3643.61861505  -0.0000000267  0.000014  0.000274  0.000031  0.000001
 38  -3643.61861505  -0.0000000070  0.000002  0.000062  0.000005  0.000000
 39  -3643.61861505  -0.0000000004  0.000001  0.000022  0.000003  0.000000
 40  -3643.61861505  -0.0000000001  0.000001  0.000059  0.000007  0.000000
 41  -3643.61861505  -0.0000000003  0.000002  0.000137  0.000015  0.000000
 42  -3643.61861506  -0.0000000005  0.000003  0.000356  0.000038  0.000001
 43  -3643.61861506  -0.0000000011  0.000004  0.000897  0.000093  0.000002
 44  -3643.61861506  -0.0000000025  0.000005  0.002410  0.000247  0.000006
 45  -3643.61861507  -0.0000000064  0.000007  0.006686  0.000684  0.000018
 46  -3643.61861508  -0.0000000171  0.000014  0.016143  0.001646  0.000042
 47  -3643.61861511  -0.0000000288  0.000026  0.004772  0.000480  0.000012
               *** Restarting incremental Fock matrix formation ***
 48  -3643.61861515  -0.0000000405  0.000023  0.024271  0.002427  0.000062
 49  -3643.61861525  -0.0000001030  0.000019  0.013700  0.001394  0.000037
 50  -3643.61861516   0.0000000956  0.000052  0.007876  0.000805  0.000021
 51  -3643.61861527  -0.0000001085  0.000004  0.003982  0.000403  0.000010
 52  -3643.61861527  -0.0000000019  0.000004  0.000265  0.000025  0.000001
 53  -3643.61861527  -0.0000000006  0.000002  0.000689  0.000071  0.000002
                  ***Gradient check signals convergence***
              ***Rediagonalizing the Fockian in SOSCF/NRSCF***

               *****************************************************
               *                     SUCCESS                       *
               *           SCF CONVERGED AFTER  54 CYCLES          *
               *****************************************************


----------------
TOTAL SCF ENERGY
----------------

Total Energy       :        -3643.61861527 Eh          -99147.90310 eV

Components:
Nuclear Repulsion  :            0.00000000 Eh               0.00000 eV
Electronic Energy  :        -3643.61861527 Eh          -99147.90310 eV
One Electron Energy:        -5016.36581299 Eh         -136502.25341 eV
Two Electron Energy:         1372.74719772 Eh           37354.35031 eV

Virial components:
Potential Energy   :        -7393.43056847 Eh         -201185.47384 eV
Kinetic Energy     :         3749.81195320 Eh          102037.57074 eV
Virial Ratio       :            1.97168036


DFT components:
N(Alpha)           :       20.999999999986 electrons
N(Beta)            :       18.999999999964 electrons
N(Total)           :       39.999999999951 electrons
E(X)               :     -112.904183412151 Eh       
E(C)               :       -1.956289165299 Eh       
E(XC)              :     -114.860472577449 Eh       
DFET-embed. en.    :        0.000000000000 Eh       

---------------
SCF CONVERGENCE
---------------

  Last Energy change         ...   -3.9563e-10  Tolerance :   1.0000e-09
  Last MAX-Density change    ...    7.6434e-05  Tolerance :   1.0000e-08
  Last RMS-Density change    ...    1.9768e-06  Tolerance :   1.0000e-09
  Last Orbital Gradient      ...    4.3345e-07  Tolerance :   2.0000e-06
  Last Orbital Rotation      ...    7.5292e-04  Tolerance :   2.0000e-06

             **** THE GBW FILE WAS UPDATED (Zr_ugbs_pbe.gbw) ****
             **** DENSITY Zr_ugbs_pbe.scfp WAS UPDATED ****
             **** ENERGY FILE WAS UPDATED (Zr_ugbs_pbe.en.tmp) ****
----------------------
UHF SPIN CONTAMINATION
----------------------

Warning: in a DFT calculation there is little theoretical justification to 
         calculate <S**2> as in Hartree-Fock theory. We will do it anyways
         but you should keep in mind that the values have only limited relevance

Expectation value of <S**2>     :     2.438632
Ideal value S*(S+1) for S=1.0   :     2.000000
Deviation                       :     0.438632

             **** THE GBW FILE WAS UPDATED (Zr_ugbs_pbe.gbw) ****
             **** DENSITY Zr_ugbs_pbe.scfp WAS UPDATED ****
----------------
ORBITAL ENERGIES
----------------
                 SPIN UP ORBITALS
  NO   OCC          E(Eh)            E(eV) 
   0   1.0000    -671.726089    -18278.5961 
   1   1.0000     -91.474738     -2489.1542 
   2   1.0000     -81.485129     -2217.3231 
   3   1.0000     -81.483268     -2217.2725 
   4   1.0000     -81.483268     -2217.2724 
   5   1.0000     -14.921237      -406.0275 
   6   1.0000     -11.694411      -318.2211 
   7   1.0000     -11.686391      -318.0029 
   8   1.0000     -11.686389      -318.0028 
   9   1.0000      -6.400940      -174.1784 
  10   1.0000      -6.399959      -174.1517 
  11   1.0000      -6.399958      -174.1517 
  12   1.0000      -6.393941      -173.9880 
  13   1.0000      -6.393941      -173.9880 
  14   1.0000      -1.996351       -54.3235 
  15   1.0000      -1.185675       -32.2639 
  16   1.0000      -1.183449       -32.2033 
  17   1.0000      -1.183447       -32.2032 
  18   1.0000      -0.166295        -4.5251 
  19   1.0000      -0.142249        -3.8708 
  20   1.0000      -0.142247        -3.8707 
  21   0.0000      -0.118820        -3.2333 
  22   0.0000      -0.118819        -3.2332 
  23   0.0000      -0.114199        -3.1075 
  24   0.0000      -0.043542        -1.1848 
  25   0.0000      -0.043542        -1.1848 
  26   0.0000      -0.028382        -0.7723 
  27   0.0000       0.007766         0.2113 
  28   0.0000       0.050704         1.3797 
  29   0.0000       0.050704         1.3797 
  30   0.0000       0.055355         1.5063 
  31   0.0000       0.055355         1.5063 
  32   0.0000       0.057942         1.5767 
  33   0.0000       0.140913         3.8344 
  34   0.0000       0.228811         6.2263 
  35   0.0000       0.228811         6.2263 
  36   0.0000       0.236581         6.4377 
  37   0.0000       0.236582         6.4377 
  38   0.0000       0.240457         6.5432 
  39   0.0000       0.297804         8.1037 
  40   0.0000       0.297804         8.1037 
  41   0.0000       0.312156         8.4942 
  42   0.0000       0.490999        13.3607 
  43   0.0000       0.640101        17.4180 
  44   0.0000       0.640102        17.4180 
  45   0.0000       0.652752        17.7623 
  46   0.0000       0.652754        17.7623 
  47   0.0000       0.657641        17.8953 
  48   0.0000       1.164009        31.6743 
  49   0.0000       1.164010        31.6743 
  50   0.0000       1.180153        32.1136 
  51   0.0000       1.411448        38.4074 
  52   0.0000       1.566373        42.6232 
  53   0.0000       1.566374        42.6232 
  54   0.0000       1.586497        43.1708 
  55   0.0000       1.586499        43.1708 
  56   0.0000       1.589004        43.2390 
  57   0.0000       3.332758        90.6889 
  58   0.0000       3.332759        90.6890 
  59   0.0000       3.343071        90.9696 
  60   0.0000       3.655348        99.4671 
  61   0.0000       3.655350        99.4671 
  62   0.0000       3.675312       100.0103 
  63   0.0000       3.675313       100.0104 
  64   0.0000       3.676213       100.0348 
  65   0.0000       3.839234       104.4709 
  66   0.0000       8.421130       229.1506 
  67   0.0000       8.421131       229.1506 
  68   0.0000       8.430843       229.4149 
  69   0.0000       8.434221       229.5068 
  70   0.0000       8.434222       229.5068 
  71   0.0000       8.827254       240.2018 
  72   0.0000       8.828966       240.2484 
  73   0.0000       8.828968       240.2484 
  74   0.0000      10.381629       282.4985 
  75   0.0000      19.298004       525.1254 
  76   0.0000      19.298005       525.1254 
  77   0.0000      19.300562       525.1950 
  78   0.0000      19.307192       525.3754 
  79   0.0000      19.307193       525.3754 
  80   0.0000      22.854065       621.8907 
  81   0.0000      22.861891       622.1037 
  82   0.0000      22.861893       622.1037 
  83   0.0000      28.143619       765.8268 
  84   0.0000      43.842078      1193.0036 
  85   0.0000      43.842542      1193.0162 
  86   0.0000      43.842543      1193.0163 
  87   0.0000      43.848839      1193.1876 
  88   0.0000      43.848839      1193.1876 
  89   0.0000      57.932810      1576.4319 
  90   0.0000      57.939983      1576.6271 
  91   0.0000      57.939985      1576.6271 
  92   0.0000      75.257324      2047.8559 
  93   0.0000      98.136972      2670.4428 
  94   0.0000      98.137401      2670.4544 
  95   0.0000      98.137402      2670.4545 
  96   0.0000      98.142357      2670.5893 
  97   0.0000      98.142357      2670.5893 
  98   0.0000     142.016162      3864.4562 
  99   0.0000     142.021227      3864.5941 
 100   0.0000     142.021228      3864.5941 
 101   0.0000     195.121168      5309.5169 
 102   0.0000     216.310237      5886.1008 
 103   0.0000     216.310238      5886.1008 
 104   0.0000     216.310894      5886.1187 
 105   0.0000     216.314703      5886.2223 
 106   0.0000     216.314703      5886.2223 
 107   0.0000     333.858521      9084.7522 
 108   0.0000     333.861685      9084.8383 
 109   0.0000     333.861686      9084.8383 
 110   0.0000     468.362298     12744.7861 
 111   0.0000     468.362298     12744.7861 
 112   0.0000     468.363018     12744.8057 
 113   0.0000     468.365559     12744.8748 
 114   0.0000     468.365559     12744.8748 
 115   0.0000     483.724424     13162.8108 
 116   0.0000     751.985235     20462.5585 
 117   0.0000     751.987176     20462.6114 
 118   0.0000     751.987177     20462.6114 
 119   0.0000     995.875603     27099.1528 
 120   0.0000     995.875603     27099.1529 
 121   0.0000     995.876008     27099.1639 
 122   0.0000     995.877619     27099.2077 
 123   0.0000     995.877620     27099.2077 
 124   0.0000    1139.266159     31001.0082 
 125   0.0000    1632.135088     44412.6536 
 126   0.0000    1632.136318     44412.6871 
 127   0.0000    1632.136318     44412.6871 
 128   0.0000    2084.107034     56711.4355 
 129   0.0000    2084.107034     56711.4355 
 130   0.0000    2084.107112     56711.4377 
 131   0.0000    2084.108186     56711.4669 
 132   0.0000    2084.108186     56711.4669 
 133   0.0000    2553.521461     69484.8515 
 134   0.0000    3437.971741     93551.9672 
 135   0.0000    3437.972625     93551.9912 
 136   0.0000    3437.972625     93551.9912 
 137   0.0000    4308.943371    117252.3101 
 138   0.0000    4308.943421    117252.3115 
 139   0.0000    4308.943421    117252.3115 
 140   0.0000    4308.944120    117252.3305 
 141   0.0000    4308.944120    117252.3305 
 142   0.0000    5487.451102    149321.1358 
 143   0.0000    7069.426481    192368.8744 
 144   0.0000    7069.427090    192368.8910 
 145   0.0000    7069.427090    192368.8910 
 146   0.0000    8934.332866    243115.5570 
 147   0.0000    8934.332944    243115.5592 
 148   0.0000    8934.332944    243115.5592 
 149   0.0000    8934.333375    243115.5709 
 150   0.0000    8934.333375    243115.5709 
 151   0.0000   11405.208121    310351.4909 
 152   0.0000   14264.140674    388147.0007 
 153   0.0000   14264.141076    388147.0117 
 154   0.0000   14264.141076    388147.0117 
 155   0.0000   18784.046206    511139.8831 
 156   0.0000   18784.046259    511139.8846 
 157   0.0000   18784.046259    511139.8846 
 158   0.0000   18784.046486    511139.8907 
 159   0.0000   18784.046486    511139.8907 
 160   0.0000   23085.608236    628191.3367 
 161   0.0000   28310.473267    770367.1423 
 162   0.0000   28310.473512    770367.1490 
 163   0.0000   28310.473512    770367.1490 
 164   0.0000   45713.167493   1243918.5271 
 165   0.0000   55554.728891   1511721.0275 
 166   0.0000   55554.729033   1511721.0314 
 167   0.0000   55554.729033   1511721.0314 
 168   0.0000   88736.740397   2414649.4646 
 169   0.0000   107469.911913   2924404.9770 
 170   0.0000   107469.911992   2924404.9792 
 171   0.0000   107469.911992   2924404.9792 
 172   0.0000   168974.859548   4598039.6881 
 173   0.0000   209885.045900   5711262.4539 
 174   0.0000   209885.045942   5711262.4551 
 175   0.0000   209885.045942   5711262.4551 
 176   0.0000   315238.542408   8578076.8399 
 177   0.0000   398385.042460   10840608.1312 
 178   0.0000   398385.042482   10840608.1318 
 179   0.0000   398385.042482   10840608.1318 
 180   0.0000   575859.201801   15669925.5246 
 181   0.0000   1025985.926666   27918496.4135 
 182   0.0000   1792860.252469   48786207.7125 
 183   0.0000   3030364.055394   82460398.1529 
 184   0.0000   5242888.668070   142666253.6704 
 185   0.0000   8507367.781822   231497246.4360 

                 SPIN DOWN ORBITALS
  NO   OCC          E(Eh)            E(eV) 
   0   1.0000    -671.726242    -18278.6003 
   1   1.0000     -91.470031     -2489.0261 
   2   1.0000     -81.483305     -2217.2735 
   3   1.0000     -81.479025     -2217.1570 
   4   1.0000     -81.479024     -2217.1570 
   5   1.0000     -14.918649      -405.9571 
   6   1.0000     -11.691213      -318.1341 
   7   1.0000     -11.683718      -317.9301 
   8   1.0000     -11.683717      -317.9301 
   9   1.0000      -6.397694      -174.0901 
  10   1.0000      -6.395811      -174.0389 
  11   1.0000      -6.395810      -174.0388 
  12   1.0000      -6.388708      -173.8456 
  13   1.0000      -6.388708      -173.8456 
  14   1.0000      -1.966727       -53.5174 
  15   1.0000      -1.164610       -31.6907 
  16   1.0000      -1.141807       -31.0702 
  17   1.0000      -1.141802       -31.0700 
  18   1.0000      -0.147440        -4.0121 
  19   0.0000      -0.100590        -2.7372 
  20   0.0000      -0.097574        -2.6551 
  21   0.0000      -0.097571        -2.6550 
  22   0.0000      -0.072047        -1.9605 
  23   0.0000      -0.072046        -1.9605 
  24   0.0000      -0.038061        -1.0357 
  25   0.0000      -0.008478        -0.2307 
  26   0.0000      -0.008474        -0.2306 
  27   0.0000       0.012513         0.3405 
  28   0.0000       0.057001         1.5511 
  29   0.0000       0.058435         1.5901 
  30   0.0000       0.058436         1.5901 
  31   0.0000       0.066170         1.8006 
  32   0.0000       0.066170         1.8006 
  33   0.0000       0.150882         4.1057 
  34   0.0000       0.240029         6.5315 
  35   0.0000       0.242457         6.5976 
  36   0.0000       0.242459         6.5976 
  37   0.0000       0.258146         7.0245 
  38   0.0000       0.258147         7.0245 
  39   0.0000       0.306447         8.3388 
  40   0.0000       0.332580         9.0500 
  41   0.0000       0.332583         9.0500 
  42   0.0000       0.510255        13.8847 
  43   0.0000       0.656899        17.8751 
  44   0.0000       0.662446        18.0261 
  45   0.0000       0.662449        18.0261 
  46   0.0000       0.683731        18.6053 
  47   0.0000       0.683732        18.6053 
  48   0.0000       1.178503        32.0687 
  49   0.0000       1.210284        32.9335 
  50   0.0000       1.210288        32.9336 
  51   0.0000       1.441870        39.2353 
  52   0.0000       1.590015        43.2665 
  53   0.0000       1.600925        43.5634 
  54   0.0000       1.600928        43.5635 
  55   0.0000       1.621995        44.1367 
  56   0.0000       1.621996        44.1368 
  57   0.0000       3.351191        91.1905 
  58   0.0000       3.380859        91.9979 
  59   0.0000       3.380864        91.9980 
  60   0.0000       3.683191       100.2247 
  61   0.0000       3.694483       100.5320 
  62   0.0000       3.694486       100.5321 
  63   0.0000       3.718143       101.1758 
  64   0.0000       3.718143       101.1758 
  65   0.0000       3.873199       105.3951 
  66   0.0000       8.441155       229.6955 
  67   0.0000       8.448306       229.8901 
  68   0.0000       8.448308       229.8901 
  69   0.0000       8.468757       230.4466 
  70   0.0000       8.468757       230.4466 
  71   0.0000       8.840378       240.5589 
  72   0.0000       8.861649       241.1377 
  73   0.0000       8.861653       241.1378 
  74   0.0000      10.405970       283.1608 
  75   0.0000      19.309370       525.4347 
  76   0.0000      19.313229       525.5397 
  77   0.0000      19.313230       525.5397 
  78   0.0000      19.327935       525.9398 
  79   0.0000      19.327935       525.9399 
  80   0.0000      22.864674       622.1794 
  81   0.0000      22.877306       622.5231 
  82   0.0000      22.877309       622.5232 
  83   0.0000      28.154781       766.1306 
  84   0.0000      43.845900      1193.1076 
  85   0.0000      43.848438      1193.1767 
  86   0.0000      43.848440      1193.1767 
  87   0.0000      43.858113      1193.4399 
  88   0.0000      43.858114      1193.4399 
  89   0.0000      57.938091      1576.5756 
  90   0.0000      57.946860      1576.8142 
  91   0.0000      57.946862      1576.8143 
  92   0.0000      75.263698      2048.0293 
  93   0.0000      98.139865      2670.5215 
  94   0.0000      98.141811      2670.5745 
  95   0.0000      98.141812      2670.5745 
  96   0.0000      98.148563      2670.7582 
  97   0.0000      98.148563      2670.7582 
  98   0.0000     142.020534      3864.5752 
  99   0.0000     142.026975      3864.7505 
 100   0.0000     142.026977      3864.7505 
 101   0.0000     195.126775      5309.6695 
 102   0.0000     216.314295      5886.2112 
 103   0.0000     216.316034      5886.2585 
 104   0.0000     216.316035      5886.2586 
 105   0.0000     216.321267      5886.4009 
 106   0.0000     216.321267      5886.4009 
 107   0.0000     333.862307      9084.8552 
 108   0.0000     333.867254      9084.9899 
 109   0.0000     333.867255      9084.9899 
 110   0.0000     468.365009     12744.8598 
 111   0.0000     468.366509     12744.9006 
 112   0.0000     468.366509     12744.9007 
 113   0.0000     468.370662     12745.0137 
 114   0.0000     468.370662     12745.0137 
 115   0.0000     483.728744     13162.9283 
 116   0.0000     751.986906     20462.6040 
 117   0.0000     751.990674     20462.7065 
 118   0.0000     751.990675     20462.7066 
 119   0.0000     995.876729     27099.1835 
 120   0.0000     995.877811     27099.2129 
 121   0.0000     995.877812     27099.2130 
 122   0.0000     995.880666     27099.2906 
 123   0.0000     995.880666     27099.2906 
 124   0.0000    1139.268143     31001.0622 
 125   0.0000    1632.135526     44412.6656 
 126   0.0000    1632.137950     44412.7315 
 127   0.0000    1632.137951     44412.7315 
 128   0.0000    2084.107164     56711.4391 
 129   0.0000    2084.107799     56711.4564 
 130   0.0000    2084.107800     56711.4564 
 131   0.0000    2084.109476     56711.5020 
 132   0.0000    2084.109476     56711.5020 
 133   0.0000    2553.522110     69484.8692 
 134   0.0000    3437.971784     93551.9683 
 135   0.0000    3437.973051     93552.0028 
 136   0.0000    3437.973051     93552.0028 
 137   0.0000    4308.943234    117252.3064 
 138   0.0000    4308.943551    117252.3150 
 139   0.0000    4308.943551    117252.3150 
 140   0.0000    4308.944391    117252.3379 
 141   0.0000    4308.944391    117252.3379 
 142   0.0000    5487.451195    149321.1383 
 143   0.0000    7069.426502    192368.8750 
 144   0.0000    7069.427103    192368.8913 
 145   0.0000    7069.427103    192368.8913 
 146   0.0000    8934.332811    243115.5555 
 147   0.0000    8934.332942    243115.5591 
 148   0.0000    8934.332942    243115.5591 
 149   0.0000    8934.333297    243115.5688 
 150   0.0000    8934.333297    243115.5688 
 151   0.0000   11405.208119    310351.4909 
 152   0.0000   14264.140746    388147.0027 
 153   0.0000   14264.141009    388147.0099 
 154   0.0000   14264.141009    388147.0099 
 155   0.0000   18784.046251    511139.8843 
 156   0.0000   18784.046301    511139.8857 
 157   0.0000   18784.046301    511139.8857 
 158   0.0000   18784.046435    511139.8894 
 159   0.0000   18784.046435    511139.8894 
 160   0.0000   23085.608258    628191.3373 
 161   0.0000   28310.473376    770367.1453 
 162   0.0000   28310.473494    770367.1485 
 163   0.0000   28310.473494    770367.1485 
 164   0.0000   45713.167556   1243918.5288 
 165   0.0000   55554.729021   1511721.0311 
 166   0.0000   55554.729076   1511721.0326 
 167   0.0000   55554.729076   1511721.0326 
 168   0.0000   88736.740489   2414649.4671 
 169   0.0000   107469.912052   2924404.9808 
 170   0.0000   107469.912077   2924404.9815 
 171   0.0000   107469.912078   2924404.9815 
 172   0.0000   168974.859654   4598039.6910 
 173   0.0000   209885.046041   5711262.4577 
 174   0.0000   209885.046052   5711262.4581 
 175   0.0000   209885.046052   5711262.4581 
 176   0.0000   315238.542514   8578076.8428 
 177   0.0000   398385.042590   10840608.1347 
 178   0.0000   398385.042594   10840608.1349 
 179   0.0000   398385.042594   10840608.1349 
 180   0.0000   575859.201899   15669925.5273 
 181   0.0000   1025985.926761   27918496.4161 
 182   0.0000   1792860.252581   48786207.7156 
 183   0.0000   3030364.055559   82460398.1574 
 184   0.0000   5242888.668201   142666253.6739 
 185   0.0000   8507367.781845   231497246.4366 

                    ********************************
                    * MULLIKEN POPULATION ANALYSIS *
                    ********************************

--------------------------------------------
MULLIKEN ATOMIC CHARGES AND SPIN POPULATIONS
--------------------------------------------
   0 Zr:   -0.000000    2.000000
Sum of atomic charges         :   -0.0000000
Sum of atomic spin populations:    2.0000000

-----------------------------------------------------
MULLIKEN REDUCED ORBITAL CHARGES AND SPIN POPULATIONS
-----------------------------------------------------
CHARGE
  0 Zrs       :     9.731836  s :     9.731836
      pz      :     6.000000  p :    18.000000
      px      :     6.000000
      py      :     6.000000
      dz2     :     2.863983  d :    12.268164
      dxz     :     2.331564
      dyz     :     2.165583
      dx2y2   :     2.681318
      dxy     :     2.225717

SPIN
  0 Zrs       :     0.144197  s :     0.144197
      pz      :    -0.000000  p :    -0.000000
      px      :     0.000000
      py      :    -0.000000
      dz2     :     0.816931  d :     1.855803
      dxz     :     0.241031
      dyz     :     0.136789
      dx2y2   :     0.615439
      dxy     :     0.045614


                     *******************************
                     * LOEWDIN POPULATION ANALYSIS *
                     *******************************

-------------------------------------------
LOEWDIN ATOMIC CHARGES AND SPIN POPULATIONS
-------------------------------------------
   0 Zr:   -0.000000    2.000000

----------------------------------------------------
LOEWDIN REDUCED ORBITAL CHARGES AND SPIN POPULATIONS
----------------------------------------------------
CHARGE
  0 Zrs       :     9.731836  s :     9.731836
      pz      :     6.000000  p :    18.000000
      px      :     6.000000
      py      :     6.000000
      dz2     :     2.863983  d :    12.268164
      dxz     :     2.331564
      dyz     :     2.165583
      dx2y2   :     2.681318
      dxy     :     2.225717

SPIN
  0 Zrs       :     0.144197  s :     0.144197
      pz      :    -0.000000  p :    -0.000000
      px      :     0.000000
      py      :    -0.000000
      dz2     :     0.816931  d :     1.855803
      dxz     :     0.241031
      dyz     :     0.136789
      dx2y2   :     0.615439
      dxy     :     0.045614


                      *****************************
                      * MAYER POPULATION ANALYSIS *
                      *****************************

  NA   - Mulliken gross atomic population
  ZA   - Total nuclear charge
  QA   - Mulliken gross atomic charge
  VA   - Mayer's total valence
  BVA  - Mayer's bonded valence
  FA   - Mayer's free valence

  ATOM       NA         ZA         QA         VA         BVA        FA
  0 Zr    40.0000    40.0000    -0.0000     2.8773     0.0000     2.8773

  Mayer bond orders larger than 0.100000


-------
TIMINGS
-------

Total SCF time: 0 days 0 hours 0 min 52 sec 

Total time                  ....      52.942 sec
Sum of individual times     ....      43.803 sec  ( 82.7%)

Fock matrix formation       ....      32.244 sec  ( 60.9%)
  XC integration            ....      10.603 sec  ( 32.9% of F)
    Basis function eval.    ....       0.353 sec  (  3.3% of XC)
    Density eval.           ....       0.662 sec  (  6.2% of XC)
    XC-Functional eval.     ....       0.221 sec  (  2.1% of XC)
    XC-Potential eval.      ....       0.710 sec  (  6.7% of XC)
Diagonalization             ....       0.861 sec  (  1.6%)
Density matrix formation    ....       0.042 sec  (  0.1%)
Population analysis         ....       0.127 sec  (  0.2%)
Initial guess               ....       4.847 sec  (  9.2%)
Orbital Transformation      ....       0.000 sec  (  0.0%)
Orbital Orthonormalization  ....       0.000 sec  (  0.0%)
DIIS solution               ....       0.605 sec  (  1.1%)
SOSCF solution              ....       0.509 sec  (  1.0%)
Grid generation             ....       4.568 sec  (  8.6%)

Maximum memory used throughout the entire SCF-calculation: 232.7 MB

-------------------------   --------------------
FINAL SINGLE POINT ENERGY     -3643.618615270257
-------------------------   --------------------


                            ***************************************
                            *     ORCA property calculations      *
                            ***************************************

                                    ---------------------
                                    Active property flags
                                    ---------------------
   (+) Dipole Moment


------------------------------------------------------------------------------
                       ORCA ELECTRIC PROPERTIES CALCULATION
------------------------------------------------------------------------------

Dipole Moment Calculation                       ... on
Quadrupole Moment Calculation                   ... off
Polarizability Calculation                      ... off
GBWName                                         ... Zr_ugbs_pbe.gbw
Electron density                                ... Zr_ugbs_pbe.scfp
The origin for moment calculation is the CENTER OF MASS  = ( 0.000000,  0.000000  0.000000)

-------------
DIPOLE MOMENT
-------------
                                X             Y             Z
Electronic contribution:     -0.00000      -0.00000       0.00000
Nuclear contribution   :      0.00000       0.00000       0.00000
                        -----------------------------------------
Total Dipole Moment    :     -0.00000      -0.00000       0.00000
                        -----------------------------------------
Magnitude (a.u.)       :      0.00000
Magnitude (Debye)      :      0.00000



--------------------
Rotational spectrum 
--------------------
 
Rotational constants in cm-1:     0.000000     0.000000     0.000000 
Rotational constants in MHz :     0.000000     0.000000     0.000000 

 Dipole components along the rotational axes: 
x,y,z [a.u.] :    -0.000000    -0.000000     0.000000 
x,y,z [Debye]:    -0.000000    -0.000000     0.000000 

 

Timings for individual modules:

Sum of individual times         ...       91.859 sec (=   1.531 min)
GTO integral calculation        ...       23.177 sec (=   0.386 min)  25.2 %
Relativistic integrals          ...       12.175 sec (=   0.203 min)  13.3 %
SCF iterations                  ...       56.507 sec (=   0.942 min)  61.5 %
                             ****ORCA TERMINATED NORMALLY****
TOTAL RUN TIME: 0 days 0 hours 1 minutes 49 seconds 501 msec
